fb3mescooh b3lypopt mono docked                                         
SP        RB3LYP                                                      Gen                 
Number of atoms                            I              108
Info1-9                                    I   N=           9
         123         121           0           0           0         111
           1          18        -502
Charge                                     I                0
Multiplicity                               I                1
Number of electrons                        I              416
Number of alpha electrons                  I              208
Number of beta electrons                   I              208
Number of basis functions                  I              348
Number of independent functions            I              348
Number of point charges in /Mol/           I                0
Number of translation vectors              I                0
Atomic numbers                             I   N=         108
           7           7           7           7           6           6
           6           6           6           6           6           6
           6           6           6           6           6           6
           6           6           6           6           6           6
           6           6           6           6           6           6
           6           6           6           1           1           1
           1           1           1           1           1           1
           1           1           1           1           1           1
           1           6           1           1           1           6
           1           1           1           6           1           1
           1           6           1           1           1           6
           1           1           1           6           1           1
           1           6           1           1           1           6
           1           1           1           6           1           1
           1           6           6           6           6           6
           6           6           6           6           1           1
           1           1           1           8           8           6
           6           6           6           6           6           6
Nuclear charges                            R   N=         108
  7.00000000E+00  7.00000000E+00  7.00000000E+00  7.00000000E+00  6.00000000E+00
  6.00000000E+00  6.00000000E+00  6.00000000E+00  6.00000000E+00  6.00000000E+00
  6.00000000E+00  6.00000000E+00  6.00000000E+00  6.00000000E+00  6.00000000E+00
  6.00000000E+00  6.00000000E+00  6.00000000E+00  6.00000000E+00  6.00000000E+00
  6.00000000E+00  6.00000000E+00  6.00000000E+00  6.00000000E+00  6.00000000E+00
  6.00000000E+00  6.00000000E+00  6.00000000E+00  6.00000000E+00  6.00000000E+00
  6.00000000E+00  6.00000000E+00  6.00000000E+00  1.00000000E+00  1.00000000E+00
  1.00000000E+00  1.00000000E+00  1.00000000E+00  1.00000000E+00  1.00000000E+00
  1.00000000E+00  1.00000000E+00  1.00000000E+00  1.00000000E+00  1.00000000E+00
  1.00000000E+00  1.00000000E+00  1.00000000E+00  1.00000000E+00  6.00000000E+00
  1.00000000E+00  1.00000000E+00  1.00000000E+00  6.00000000E+00  1.00000000E+00
  1.00000000E+00  1.00000000E+00  6.00000000E+00  1.00000000E+00  1.00000000E+00
  1.00000000E+00  6.00000000E+00  1.00000000E+00  1.00000000E+00  1.00000000E+00
  6.00000000E+00  1.00000000E+00  1.00000000E+00  1.00000000E+00  6.00000000E+00
  1.00000000E+00  1.00000000E+00  1.00000000E+00  6.00000000E+00  1.00000000E+00
  1.00000000E+00  1.00000000E+00  6.00000000E+00  1.00000000E+00  1.00000000E+00
  1.00000000E+00  6.00000000E+00  1.00000000E+00  1.00000000E+00  1.00000000E+00
  6.00000000E+00  6.00000000E+00  6.00000000E+00  6.00000000E+00  6.00000000E+00
  6.00000000E+00  6.00000000E+00  6.00000000E+00  6.00000000E+00  1.00000000E+00
  1.00000000E+00  1.00000000E+00  1.00000000E+00  1.00000000E+00  8.00000000E+00
  8.00000000E+00  6.00000000E+00  6.00000000E+00  6.00000000E+00  6.00000000E+00
  6.00000000E+00  6.00000000E+00  6.00000000E+00
Current cartesian coordinates              R   N=         324
  2.62673080E+01  3.78174684E+01  3.53736781E+01  3.18955815E+01  3.85251011E+01
  4.05705441E+01  3.14070778E+01  3.58411748E+01  3.57306017E+01  2.67760590E+01
  4.05438184E+01  4.01891344E+01  4.06322336E+01  3.15278450E+01  4.03795922E+01
  2.97671097E+01  4.28342965E+01  5.07110344E+01  1.75079022E+01  4.48293549E+01
  3.56537815E+01  3.77835629E+01  3.47677099E+01  3.88458871E+01  3.01297463E+01
  4.27169087E+01  4.61481929E+01  2.03769285E+01  4.15726410E+01  3.71128417E+01
  4.22853800E+01  3.50450456E+01  3.80572202E+01  3.13934990E+01  4.64356618E+01
  4.85012654E+01  1.58737342E+01  4.12338425E+01  3.78674549E+01  2.83642319E+01
  3.50351270E+01  3.22542336E+01  3.51549859E+01  3.58221410E+01  3.85719244E+01
  2.98151960E+01  4.13428612E+01  4.36770168E+01  2.30132669E+01  4.05340216E+01
  3.73744209E+01  3.07008665E+01  3.47433580E+01  3.34823912E+01  3.38102154E+01
  3.51027542E+01  3.64020424E+01  2.74808279E+01  4.16229021E+01  4.24482935E+01
  2.43557113E+01  4.12452754E+01  3.95503605E+01  3.27921485E+01  3.32102695E+01
  3.26849450E+01  3.46745274E+01  3.34345689E+01  3.44483145E+01  2.53663392E+01
  4.30948947E+01  4.32918207E+01  2.34745168E+01  4.28669903E+01  4.15369718E+01
  2.63194927E+01  3.64932325E+01  3.31588542E+01  3.42315440E+01  3.74287522E+01
  4.04885285E+01  3.18521352E+01  3.98855737E+01  4.27661570E+01  2.39449999E+01
  3.89505920E+01  3.54446516E+01  2.39570740E+01  3.68082907E+01  3.17639572E+01
  3.57276586E+01  3.81212593E+01  4.27026832E+01  3.42445317E+01  3.96521653E+01
  4.41218047E+01  2.24756864E+01  3.83287787E+01  3.31943964E+01  2.35236152E+01
  3.59912277E+01  2.99433755E+01  3.76382770E+01  3.75055206E+01  4.30831656E+01
  3.46897261E+01  4.05463762E+01  4.59041850E+01  2.05873241E+01  3.89944137E+01
  3.27882891E+01  3.28188755E+01  3.20802921E+01  3.09862168E+01  3.65046785E+01
  3.25301742E+01  3.44379266E+01  2.53383409E+01  4.41781562E+01  4.50220589E+01
  2.16249259E+01  4.37302989E+01  4.15774855E+01  4.38792580E+01  3.60504919E+01
  3.72326114E+01  3.21582317E+01  4.83450209E+01  4.85167338E+01  1.42847116E+01
  4.01918872E+01  3.86548172E+01  4.09204845E+01  2.97578891E+01  4.13866389E+01
  2.92501224E+01  4.19020205E+01  5.24701250E+01  1.72088527E+01  4.66240547E+01
  3.46944061E+01  3.02892761E+01  3.70056425E+01  3.67666074E+01  2.78932828E+01
  3.93857909E+01  3.91454569E+01  4.53607635E+01  3.17494088E+01  3.96618703E+01
  4.65073590E+01  3.20785826E+01  3.79692849E+01  4.53405139E+01  2.97141375E+01
  4.00356071E+01  4.63419125E+01  3.26585493E+01  4.12490904E+01  3.59884045E+01
  3.10414196E+01  4.13097758E+01  3.66511929E+01  2.93155397E+01  4.22366586E+01
  3.45884520E+01  3.05020787E+01  3.98807827E+01  3.49900441E+01  3.21830266E+01
  4.27209183E+01  3.95062789E+01  3.85239218E+01  3.63739480E+01  4.13241656E+01
  3.92727289E+01  3.57322554E+01  3.86056430E+01  3.99603016E+01  3.75642031E+01
  3.82938620E+01  3.82814368E+01  3.47113690E+01  1.86759227E+01  3.77331581E+01
  3.94674487E+01  1.68640475E+01  3.69647020E+01  4.01030481E+01  1.99016236E+01
  3.79331111E+01  4.11258345E+01  1.95688624E+01  3.63301932E+01  3.82323067E+01
  2.21517162E+01  4.53829286E+01  3.47648179E+01  2.14770154E+01  4.71172680E+01
  3.38627033E+01  2.31813921E+01  4.42809664E+01  3.33447208E+01  2.35275319E+01
  4.59136686E+01  3.62203555E+01  1.27783877E+01  4.45448309E+01  3.63284910E+01
  1.19397248E+01  4.39294197E+01  3.45321749E+01  1.27545783E+01  4.66149176E+01
  3.63352326E+01  1.15329860E+01  4.38846246E+01  3.78441313E+01  3.18796468E+01
  4.65176356E+01  4.37662408E+01  3.25700513E+01  4.84270520E+01  4.41594284E+01
  3.02936896E+01  4.66713107E+01  4.24424172E+01  3.33811332E+01  4.54852208E+01
  4.27803220E+01  2.84171222E+01  3.88596157E+01  4.84646250E+01  2.80142576E+01
  3.82476858E+01  5.03986395E+01  2.97560242E+01  3.75154657E+01  4.76326964E+01
  2.66647901E+01  3.87099911E+01  4.73694460E+01  3.09919644E+01  4.66926763E+01
  5.32638769E+01  3.25259096E+01  4.80804808E+01  5.31903031E+01  3.13763012E+01
  4.53950786E+01  5.48303197E+01  2.92533872E+01  4.77243066E+01  5.37353783E+01
  4.27157043E+01  3.27811800E+01  3.93504183E+01  3.81737458E+01  3.24783904E+01
  4.01546636E+01  3.98613079E+01  3.60640412E+01  3.77870730E+01  3.11119136E+01
  4.51959475E+01  4.61823949E+01  2.94529764E+01  4.15241354E+01  4.84357366E+01
  3.07271127E+01  4.52939102E+01  5.07877580E+01  1.83067468E+01  4.02287653E+01
  3.81221818E+01  1.99726077E+01  4.38961647E+01  3.58670345E+01  1.54294767E+01
  4.35272407E+01  3.66354637E+01  2.57132709E+01  2.68463134E+01  2.09822545E+01
  2.47834807E+01  2.87669690E+01  2.71293547E+01  3.02365420E+01  3.37313934E+01
  2.36898920E+01  2.52938397E+01  3.10433051E+01  3.12270257E+01  3.07216486E+01
  3.60123467E+01  2.77978230E+01  2.86532693E+01  3.03863376E+01  2.08977837E+01
  2.57610243E+01  2.78081462E+01  2.26936283E+01  2.80563902E+01  3.36687863E+01
  2.97942857E+01  2.73315783E+01  2.97262164E+01  2.27542517E+01  2.75217979E+01
  3.10856459E+01  2.51871872E+01  2.61072662E+01  3.03336878E+01  2.73035215E+01
  2.91896606E+01  3.31451488E+01  2.53624128E+01  2.63771832E+01  3.16223649E+01
  2.95829456E+01  2.94457516E+01  3.44111488E+01  2.76523112E+01
Force Field                                I                0
Int Atom Types                             I   N=         108
           0           0           0           0           0           0
           0           0           0           0           0           0
           0           0           0           0           0           0
           0           0           0           0           0           0
           0           0           0           0           0           0
           0           0           0           0           0           0
           0           0           0           0           0           0
           0           0           0           0           0           0
           0           0           0           0           0           0
           0           0           0           0           0           0
           0           0           0           0           0           0
           0           0           0           0           0           0
           0           0           0           0           0           0
           0           0           0           0           0           0
           0           0           0           0           0           0
           0           0           0           0           0           0
           0           0           0           0           0           0
           0           0           0           0           0           0
MM charges                                 R   N=         108
  0.00000000E+00  0.00000000E+00  0.00000000E+00  0.00000000E+00  0.00000000E+00
  0.00000000E+00  0.00000000E+00  0.00000000E+00  0.00000000E+00  0.00000000E+00
  0.00000000E+00  0.00000000E+00  0.00000000E+00  0.00000000E+00  0.00000000E+00
  0.00000000E+00  0.00000000E+00  0.00000000E+00  0.00000000E+00  0.00000000E+00
  0.00000000E+00  0.00000000E+00  0.00000000E+00  0.00000000E+00  0.00000000E+00
  0.00000000E+00  0.00000000E+00  0.00000000E+00  0.00000000E+00  0.00000000E+00
  0.00000000E+00  0.00000000E+00  0.00000000E+00  0.00000000E+00  0.00000000E+00
  0.00000000E+00  0.00000000E+00  0.00000000E+00  0.00000000E+00  0.00000000E+00
  0.00000000E+00  0.00000000E+00  0.00000000E+00  0.00000000E+00  0.00000000E+00
  0.00000000E+00  0.00000000E+00  0.00000000E+00  0.00000000E+00  0.00000000E+00
  0.00000000E+00  0.00000000E+00  0.00000000E+00  0.00000000E+00  0.00000000E+00
  0.00000000E+00  0.00000000E+00  0.00000000E+00  0.00000000E+00  0.00000000E+00
  0.00000000E+00  0.00000000E+00  0.00000000E+00  0.00000000E+00  0.00000000E+00
  0.00000000E+00  0.00000000E+00  0.00000000E+00  0.00000000E+00  0.00000000E+00
  0.00000000E+00  0.00000000E+00  0.00000000E+00  0.00000000E+00  0.00000000E+00
  0.00000000E+00  0.00000000E+00  0.00000000E+00  0.00000000E+00  0.00000000E+00
  0.00000000E+00  0.00000000E+00  0.00000000E+00  0.00000000E+00  0.00000000E+00
  0.00000000E+00  0.00000000E+00  0.00000000E+00  0.00000000E+00  0.00000000E+00
  0.00000000E+00  0.00000000E+00  0.00000000E+00  0.00000000E+00  0.00000000E+00
  0.00000000E+00  0.00000000E+00  0.00000000E+00  0.00000000E+00  0.00000000E+00
  0.00000000E+00  0.00000000E+00  0.00000000E+00  0.00000000E+00  0.00000000E+00
  0.00000000E+00  0.00000000E+00  0.00000000E+00
Integer atomic weights                     I   N=         108
          14          14          14          14          12          12
          12          12          12          12          12          12
          12          12          12          12          12          12
          12          12          12          12          12          12
          12          12          12          12          12          12
          12          12          12           1           1           1
           1           1           1           1           1           1
           1           1           1           1           1           1
           1          12           1           1           1          12
           1           1           1          12           1           1
           1          12           1           1           1          12
           1           1           1          12           1           1
           1          12           1           1           1          12
           1           1           1          12           1           1
           1          12          12          12          12          12
          12          12          12          12           1           1
           1           1           1          16          16          12
          12          12          12          12          12          12
Real atomic weights                        R   N=         108
  1.40030740E+01  1.40030740E+01  1.40030740E+01  1.40030740E+01  1.20000000E+01
  1.20000000E+01  1.20000000E+01  1.20000000E+01  1.20000000E+01  1.20000000E+01
  1.20000000E+01  1.20000000E+01  1.20000000E+01  1.20000000E+01  1.20000000E+01
  1.20000000E+01  1.20000000E+01  1.20000000E+01  1.20000000E+01  1.20000000E+01
  1.20000000E+01  1.20000000E+01  1.20000000E+01  1.20000000E+01  1.20000000E+01
  1.20000000E+01  1.20000000E+01  1.20000000E+01  1.20000000E+01  1.20000000E+01
  1.20000000E+01  1.20000000E+01  1.20000000E+01  1.00782504E+00  1.00782504E+00
  1.00782504E+00  1.00782504E+00  1.00782504E+00  1.00782504E+00  1.00782504E+00
  1.00782504E+00  1.00782504E+00  1.00782504E+00  1.00782504E+00  1.00782504E+00
  1.00782504E+00  1.00782504E+00  1.00782504E+00  1.00782504E+00  1.20000000E+01
  1.00782504E+00  1.00782504E+00  1.00782504E+00  1.20000000E+01  1.00782504E+00
  1.00782504E+00  1.00782504E+00  1.20000000E+01  1.00782504E+00  1.00782504E+00
  1.00782504E+00  1.20000000E+01  1.00782504E+00  1.00782504E+00  1.00782504E+00
  1.20000000E+01  1.00782504E+00  1.00782504E+00  1.00782504E+00  1.20000000E+01
  1.00782504E+00  1.00782504E+00  1.00782504E+00  1.20000000E+01  1.00782504E+00
  1.00782504E+00  1.00782504E+00  1.20000000E+01  1.00782504E+00  1.00782504E+00
  1.00782504E+00  1.20000000E+01  1.00782504E+00  1.00782504E+00  1.00782504E+00
  1.20000000E+01  1.20000000E+01  1.20000000E+01  1.20000000E+01  1.20000000E+01
  1.20000000E+01  1.20000000E+01  1.20000000E+01  1.20000000E+01  1.00782504E+00
  1.00782504E+00  1.00782504E+00  1.00782504E+00  1.00782504E+00  1.59949146E+01
  1.59949146E+01  1.20000000E+01  1.20000000E+01  1.20000000E+01  1.20000000E+01
  1.20000000E+01  1.20000000E+01  1.20000000E+01
Atom fragment info                         I   N=         108
           0           0           0           0           0           0
           0           0           0           0           0           0
           0           0           0           0           0           0
           0           0           0           0           0           0
           0           0           0           0           0           0
           0           0           0           0           0           0
           0           0           0           0           0           0
           0           0           0           0           0           0
           0           0           0           0           0           0
           0           0           0           0           0           0
           0           0           0           0           0           0
           0           0           0           0           0           0
           0           0           0           0           0           0
           0           0           0           0           0           0
           0           0           0           0           0           0
           0           0           0           0           0           0
           0           0           0           0           0           0
           0           0           0           0           0           0
Atom residue num                           I   N=         108
           0           0           0           0           0           0
           0           0           0           0           0           0
           0           0           0           0           0           0
           0           0           0           0           0           0
           0           0           0           0           0           0
           0           0           0           0           0           0
           0           0           0           0           0           0
           0           0           0           0           0           0
           0           0           0           0           0           0
           0           0           0           0           0           0
           0           0           0           0           0           0
           0           0           0           0           0           0
           0           0           0           0           0           0
           0           0           0           0           0           0
           0           0           0           0           0           0
           0           0           0           0           0           0
           0           0           0           0           0           0
           0           0           0           0           0           0
Nuclear spins                              I   N=         108
           2           2           2           2           0           0
           0           0           0           0           0           0
           0           0           0           0           0           0
           0           0           0           0           0           0
           0           0           0           0           0           0
           0           0           0           1           1           1
           1           1           1           1           1           1
           1           1           1           1           1           1
           1           0           1           1           1           0
           1           1           1           0           1           1
           1           0           1           1           1           0
           1           1           1           0           1           1
           1           0           1           1           1           0
           1           1           1           0           1           1
           1           0           0           0           0           0
           0           0           0           0           1           1
           1           1           1           0           0           0
           0           0           0           0           0           0
Nuclear ZEff                               R   N=         108
 -4.55000000E+00 -4.55000000E+00 -4.55000000E+00 -4.55000000E+00 -3.60000000E+00
 -3.60000000E+00 -3.60000000E+00 -3.60000000E+00 -3.60000000E+00 -3.60000000E+00
 -3.60000000E+00 -3.60000000E+00 -3.60000000E+00 -3.60000000E+00 -3.60000000E+00
 -3.60000000E+00 -3.60000000E+00 -3.60000000E+00 -3.60000000E+00 -3.60000000E+00
 -3.60000000E+00 -3.60000000E+00 -3.60000000E+00 -3.60000000E+00 -3.60000000E+00
 -3.60000000E+00 -3.60000000E+00 -3.60000000E+00 -3.60000000E+00 -3.60000000E+00
 -3.60000000E+00 -3.60000000E+00 -3.60000000E+00 -1.00000000E+00 -1.00000000E+00
 -1.00000000E+00 -1.00000000E+00 -1.00000000E+00 -1.00000000E+00 -1.00000000E+00
 -1.00000000E+00 -1.00000000E+00 -1.00000000E+00 -1.00000000E+00 -1.00000000E+00
 -1.00000000E+00 -1.00000000E+00 -1.00000000E+00 -1.00000000E+00 -3.60000000E+00
 -1.00000000E+00 -1.00000000E+00 -1.00000000E+00 -3.60000000E+00 -1.00000000E+00
 -1.00000000E+00 -1.00000000E+00 -3.60000000E+00 -1.00000000E+00 -1.00000000E+00
 -1.00000000E+00 -3.60000000E+00 -1.00000000E+00 -1.00000000E+00 -1.00000000E+00
 -3.60000000E+00 -1.00000000E+00 -1.00000000E+00 -1.00000000E+00 -3.60000000E+00
 -1.00000000E+00 -1.00000000E+00 -1.00000000E+00 -3.60000000E+00 -1.00000000E+00
 -1.00000000E+00 -1.00000000E+00 -3.60000000E+00 -1.00000000E+00 -1.00000000E+00
 -1.00000000E+00 -3.60000000E+00 -1.00000000E+00 -1.00000000E+00 -1.00000000E+00
 -3.60000000E+00 -3.60000000E+00 -3.60000000E+00 -3.60000000E+00 -3.60000000E+00
 -3.60000000E+00 -3.60000000E+00 -3.60000000E+00 -3.60000000E+00 -1.00000000E+00
 -1.00000000E+00 -1.00000000E+00 -1.00000000E+00 -1.00000000E+00 -5.60000000E+00
 -5.60000000E+00 -3.60000000E+00 -3.60000000E+00 -3.60000000E+00 -3.60000000E+00
 -3.60000000E+00 -3.60000000E+00 -3.60000000E+00
Nuclear QMom                               R   N=         108
  2.04400000E+00  2.04400000E+00  2.04400000E+00  2.04400000E+00  0.00000000E+00
  0.00000000E+00  0.00000000E+00  0.00000000E+00  0.00000000E+00  0.00000000E+00
  0.00000000E+00  0.00000000E+00  0.00000000E+00  0.00000000E+00  0.00000000E+00
  0.00000000E+00  0.00000000E+00  0.00000000E+00  0.00000000E+00  0.00000000E+00
  0.00000000E+00  0.00000000E+00  0.00000000E+00  0.00000000E+00  0.00000000E+00
  0.00000000E+00  0.00000000E+00  0.00000000E+00  0.00000000E+00  0.00000000E+00
  0.00000000E+00  0.00000000E+00  0.00000000E+00  0.00000000E+00  0.00000000E+00
  0.00000000E+00  0.00000000E+00  0.00000000E+00  0.00000000E+00  0.00000000E+00
  0.00000000E+00  0.00000000E+00  0.00000000E+00  0.00000000E+00  0.00000000E+00
  0.00000000E+00  0.00000000E+00  0.00000000E+00  0.00000000E+00  0.00000000E+00
  0.00000000E+00  0.00000000E+00  0.00000000E+00  0.00000000E+00  0.00000000E+00
  0.00000000E+00  0.00000000E+00  0.00000000E+00  0.00000000E+00  0.00000000E+00
  0.00000000E+00  0.00000000E+00  0.00000000E+00  0.00000000E+00  0.00000000E+00
  0.00000000E+00  0.00000000E+00  0.00000000E+00  0.00000000E+00  0.00000000E+00
  0.00000000E+00  0.00000000E+00  0.00000000E+00  0.00000000E+00  0.00000000E+00
  0.00000000E+00  0.00000000E+00  0.00000000E+00  0.00000000E+00  0.00000000E+00
  0.00000000E+00  0.00000000E+00  0.00000000E+00  0.00000000E+00  0.00000000E+00
  0.00000000E+00  0.00000000E+00  0.00000000E+00  0.00000000E+00  0.00000000E+00
  0.00000000E+00  0.00000000E+00  0.00000000E+00  0.00000000E+00  0.00000000E+00
  0.00000000E+00  0.00000000E+00  0.00000000E+00  0.00000000E+00  0.00000000E+00
  0.00000000E+00  0.00000000E+00  0.00000000E+00  0.00000000E+00  0.00000000E+00
  0.00000000E+00  0.00000000E+00  0.00000000E+00
Nuclear GFac                               R   N=         108
  4.03761000E-01  4.03761000E-01  4.03761000E-01  4.03761000E-01  0.00000000E+00
  0.00000000E+00  0.00000000E+00  0.00000000E+00  0.00000000E+00  0.00000000E+00
  0.00000000E+00  0.00000000E+00  0.00000000E+00  0.00000000E+00  0.00000000E+00
  0.00000000E+00  0.00000000E+00  0.00000000E+00  0.00000000E+00  0.00000000E+00
  0.00000000E+00  0.00000000E+00  0.00000000E+00  0.00000000E+00  0.00000000E+00
  0.00000000E+00  0.00000000E+00  0.00000000E+00  0.00000000E+00  0.00000000E+00
  0.00000000E+00  0.00000000E+00  0.00000000E+00  2.79284600E+00  2.79284600E+00
  2.79284600E+00  2.79284600E+00  2.79284600E+00  2.79284600E+00  2.79284600E+00
  2.79284600E+00  2.79284600E+00  2.79284600E+00  2.79284600E+00  2.79284600E+00
  2.79284600E+00  2.79284600E+00  2.79284600E+00  2.79284600E+00  0.00000000E+00
  2.79284600E+00  2.79284600E+00  2.79284600E+00  0.00000000E+00  2.79284600E+00
  2.79284600E+00  2.79284600E+00  0.00000000E+00  2.79284600E+00  2.79284600E+00
  2.79284600E+00  0.00000000E+00  2.79284600E+00  2.79284600E+00  2.79284600E+00
  0.00000000E+00  2.79284600E+00  2.79284600E+00  2.79284600E+00  0.00000000E+00
  2.79284600E+00  2.79284600E+00  2.79284600E+00  0.00000000E+00  2.79284600E+00
  2.79284600E+00  2.79284600E+00  0.00000000E+00  2.79284600E+00  2.79284600E+00
  2.79284600E+00  0.00000000E+00  2.79284600E+00  2.79284600E+00  2.79284600E+00
  0.00000000E+00  0.00000000E+00  0.00000000E+00  0.00000000E+00  0.00000000E+00
  0.00000000E+00  0.00000000E+00  0.00000000E+00  0.00000000E+00  2.79284600E+00
  2.79284600E+00  2.79284600E+00  2.79284600E+00  2.79284600E+00  0.00000000E+00
  0.00000000E+00  0.00000000E+00  0.00000000E+00  0.00000000E+00  0.00000000E+00
  0.00000000E+00  0.00000000E+00  0.00000000E+00
MicOpt                                     I   N=         108
          -1          -1          -1          -1          -1          -1
          -1          -1          -1          -1          -1          -1
          -1          -1          -1          -1          -1          -1
          -1          -1          -1          -1          -1          -1
          -1          -1          -1          -1          -1          -1
          -1          -1          -1          -1          -1          -1
          -1          -1          -1          -1          -1          -1
          -1          -1          -1          -1          -1          -1
          -1          -1          -1          -1          -1          -1
          -1          -1          -1          -1          -1          -1
          -1          -1          -1          -1          -1          -1
          -1          -1          -1          -1          -1          -1
          -1          -1          -1          -1          -1          -1
          -1          -1          -1          -1          -1          -1
          -1          -1          -1          -1          -1          -1
          -1          -1          -1          -1          -1          -1
          -1          -1          -1          -1          -1          -1
          -1          -1          -1          -1          -1          -1
Number of contracted shells                I              168
Number of primitive shells                 I             1008
Pure/Cartesian d shells                    I                0
Pure/Cartesian f shells                    I                0
Highest angular momentum                   I                1
Largest degree of contraction              I                6
Shell types                                I   N=         168
           0          -1           0          -1           0          -1
           0          -1           0          -1           0          -1
           0          -1           0          -1           0          -1
           0          -1           0          -1           0          -1
           0          -1           0          -1           0          -1
           0          -1           0          -1           0          -1
           0          -1           0          -1           0          -1
           0          -1           0          -1           0          -1
           0          -1           0          -1           0          -1
           0          -1           0          -1           0          -1
           0          -1           0          -1           0          -1
           0           0           0           0           0           0
           0           0           0           0           0           0
           0           0           0           0           0          -1
           0           0           0           0          -1           0
           0           0           0          -1           0           0
           0           0          -1           0           0           0
           0          -1           0           0           0           0
          -1           0           0           0           0          -1
           0           0           0           0          -1           0
           0           0           0          -1           0           0
           0           0          -1           0          -1           0
          -1           0          -1           0          -1           0
          -1           0          -1           0          -1           0
          -1           0           0           0           0           0
           0          -1           0          -1           0          -1
           0          -1           0          -1           0          -1
           0          -1           0          -1           0          -1
Number of primitives per shell             I   N=         168
           6           6           6           6           6           6
           6           6           6           6           6           6
           6           6           6           6           6           6
           6           6           6           6           6           6
           6           6           6           6           6           6
           6           6           6           6           6           6
           6           6           6           6           6           6
           6           6           6           6           6           6