 Entering Gaussian System, Link 0=g09
 Input=fb3mescooh.com
 Output=fb3mescooh.log
 Initial command:
 /usr/local/apps/g09/l1.exe /share2/jshigh/Calculations/Gaussian/test/fb3mescooh/td20-b3lyp/Gau-28014.inp -scrdir=/share2/jshigh/Calculations/Gaussian/test/fb3mescooh/td20-b3lyp/
 Entering Link 1 = /usr/local/apps/g09/l1.exe PID=     28015.
  
 Copyright (c) 1988,1990,1992,1993,1995,1998,2003,2009, Gaussian, Inc.
                  All Rights Reserved.
  
 This is part of the Gaussian(R) 09 program.  It is based on
 the Gaussian(R) 03 system (copyright 2003, Gaussian, Inc.),
 the Gaussian(R) 98 system (copyright 1998, Gaussian, Inc.),
 the Gaussian(R) 94 system (copyright 1995, Gaussian, Inc.),
 the Gaussian 92(TM) system (copyright 1992, Gaussian, Inc.),
 the Gaussian 90(TM) system (copyright 1990, Gaussian, Inc.),
 the Gaussian 88(TM) system (copyright 1988, Gaussian, Inc.),
 the Gaussian 86(TM) system (copyright 1986, Carnegie Mellon
 University), and the Gaussian 82(TM) system (copyright 1983,
 Carnegie Mellon University). Gaussian is a federally registered
 trademark of Gaussian, Inc.
  
 This software contains proprietary and confidential information,
 including trade secrets, belonging to Gaussian, Inc.
  
 This software is provided under written license and may be
 used, copied, transmitted, or stored only in accord with that
 written license.
  
 The following legend is applicable only to US Government
 contracts under FAR:
  
                    RESTRICTED RIGHTS LEGEND
  
 Use, reproduction and disclosure by the US Government is
 subject to restrictions as set forth in subparagraphs (a)
 and (c) of the Commercial Computer Software - Restricted
 Rights clause in FAR 52.227-19.
  
 Gaussian, Inc.
 340 Quinnipiac St., Bldg. 40, Wallingford CT 06492
  
  
 ---------------------------------------------------------------
 Warning -- This program may not be used in any manner that
 competes with the business of Gaussian, Inc. or will provide
 assistance to any competitor of Gaussian, Inc.  The licensee
 of this program is prohibited from giving any competitor of
 Gaussian, Inc. access to this program.  By using this program,
 the user acknowledges that Gaussian, Inc. is engaged in the
 business of creating and licensing software in the field of
 computational chemistry and represents and warrants to the
 licensee that it is not a competitor of Gaussian, Inc. and that
 it will not use this program in any manner prohibited above.
 ---------------------------------------------------------------
  

 Cite this work as:
 Gaussian 09, Revision A.02,
 M. J. Frisch, G. W. Trucks, H. B. Schlegel, G. E. Scuseria, 
 M. A. Robb, J. R. Cheeseman, G. Scalmani, V. Barone, B. Mennucci, 
 G. A. Petersson, H. Nakatsuji, M. Caricato, X. Li, H. P. Hratchian, 
 A. F. Izmaylov, J. Bloino, G. Zheng, J. L. Sonnenberg, M. Hada, 
 M. Ehara, K. Toyota, R. Fukuda, J. Hasegawa, M. Ishida, T. Nakajima, 
 Y. Honda, O. Kitao, H. Nakai, T. Vreven, J. A. Montgomery, Jr., 
 J. E. Peralta, F. Ogliaro, M. Bearpark, J. J. Heyd, E. Brothers, 
 K. N. Kudin, V. N. Staroverov, R. Kobayashi, J. Normand, 
 K. Raghavachari, A. Rendell, J. C. Burant, S. S. Iyengar, J. Tomasi, 
 M. Cossi, N. Rega, J. M. Millam, M. Klene, J. E. Knox, J. B. Cross, 
 V. Bakken, C. Adamo, J. Jaramillo, R. Gomperts, R. E. Stratmann, 
 O. Yazyev, A. J. Austin, R. Cammi, C. Pomelli, J. W. Ochterski, 
 R. L. Martin, K. Morokuma, V. G. Zakrzewski, G. A. Voth, 
 P. Salvador, J. J. Dannenberg, S. Dapprich, A. D. Daniels, 
 O. Farkas, J. B. Foresman, J. V. Ortiz, J. Cioslowski, 
 and D. J. Fox, Gaussian, Inc., Wallingford CT, 2009.
 
 ******************************************
 Gaussian 09:  EM64L-G09RevA.02 11-Jun-2009
                30-Apr-2015 
 ******************************************
 %chk=fb3mescooh.chk
 %mem=60GB
 %nproc=16
 Will use up to   16 processors via shared memory.
 -------------------------------------------------------------
 #p td(singlets,add=10) b3lyp/gen nosymm geom=check guess=read
 -------------------------------------------------------------
 1/29=2,38=1/1;
 2/12=2,15=1,40=1/2;
 3/5=7,11=2,14=-4,16=1,25=1,30=1,74=-5,116=-2/1,2,8,3;
 4/5=1/1;
 5/5=2,38=6/2;
 8/6=1,10=1/1;
 9/39=10,42=1,48=1/14;
 6/7=2,8=2,9=2,10=2/1;
 99/5=1,9=1/99;
 Leave Link    1 at Thu Apr 30 11:49:01 2015, MaxMem= 8053063680 cpu:       4.5
 (Enter /usr/local/apps/g09/l101.exe)
 ----------------------------------------------------
 fb3mescooh b3lypopt freq b3lypopt t2 td10b3lyp add10
 ----------------------------------------------------
 Z-Matrix taken from the checkpoint file:
 fb3mescooh.chk
 Charge =  0 Multiplicity = 1
 O,0,39.74640834,44.26473791,46.45096926
 O,0,40.44417125,42.48216598,45.26605996
 N,0,33.16039626,44.9415645,41.09429693
 N,0,33.15634699,46.18453793,37.21457948
 N,0,35.26412533,45.48146404,39.14574242
 N,0,31.05269455,45.61920152,39.15503292
 C,0,39.68851826,43.42716759,45.38275111
 C,0,38.62765689,43.79530181,44.41065282
 C,0,38.47362821,42.99863869,43.26808267
 C,0,38.17160622,48.14891156,34.73180598
 C,0,28.21262195,48.39399037,34.77472861
 C,0,28.11958396,42.94070939,43.52918904
 C,0,37.49520932,43.30412022,42.32749308
 C,0,36.64588169,44.41061927,42.50475513
 C,0,36.66402993,46.57272305,35.78688837
 C,0,29.66261497,46.75100043,35.80806821
 C,0,29.6463106,44.51827562,42.50486117
 C,0,36.80875382,45.2020311,43.65477656
 C,0,37.78700882,44.90123865,44.59897478
 C,0,38.14872729,45.86492884,34.00801354
 C,0,28.15296118,46.12033682,34.0209923
 C,0,28.17747765,45.20688281,44.30485965
 C,0,35.59486878,44.74349393,41.49238306
 C,0,35.59839998,46.26027314,36.80419617
 C,0,30.72056904,46.38959337,36.81626374
 C,0,30.71382505,44.83973466,41.49233062
 C,0,36.04953031,45.14364866,40.22349873
 C,0,36.04251262,45.84178454,38.06809121
 C,0,30.27101423,45.98824233,38.08416995
 C,0,30.27037811,45.27862247,40.23414757
 C,0,37.4117858,45.30556838,39.800131
 C,0,37.40653038,45.72048377,38.49455997
 C,0,28.90781348,45.87743997,38.51685426
 C,0,28.90727763,45.44740582,39.81837343
 C,0,34.23858882,44.6405271,41.87635259
 C,0,34.24783741,46.41232223,36.42570744
 C,0,32.07439193,46.47379828,36.43084538
 C,0,32.0631756,44.67849504,41.86786761
 C,0,33.81307951,44.15619429,43.18810885
 C,0,33.84705512,46.85883003,35.09373258
 C,0,32.49253012,46.89796766,35.09736671
 C,0,32.45884148,44.1858262,43.18343368
 H,0,34.4650226,43.8295229,43.9853927
 H,0,34.52119233,47.1043362,34.28490823
 H,0,31.82912034,47.18242578,34.29234555
 H,0,31.78214157,43.89723161,43.97562213
 H,0,40.47045808,43.92579231,47.00952817
 H,0,38.27375881,45.13170101,40.42652753
 H,0,38.26024669,45.93908277,37.86977823
 H,0,28.05309379,46.10092036,37.89500056
 H,0,28.05177307,45.25590848,40.44967993
 H,0,37.90638724,45.52346431,45.47905729
 H,0,38.52491533,45.07485747,33.36082992
 H,0,27.75356206,45.35442393,33.35865786
 H,0,27.81722817,45.98637836,44.97402233
 H,0,36.16446306,46.06403517,43.79959073
 H,0,37.37342198,42.67739809,41.44899169
 H,0,39.12611598,42.14136392,43.13837641
 H,0,38.56644203,49.16042186,34.65592572
 H,0,27.86024917,49.42152543,34.70716601
 H,0,27.71416402,41.93239892,43.58605353
 H,0,34.24919485,45.48497841,39.15591342
 H,0,32.06748469,45.60505376,39.14571464
 C,0,39.72076616,47.47511562,32.84528211
 H,0,40.30382715,46.58727701,32.57832631
 H,0,40.41644453,48.24317443,33.2010494
 H,0,39.26481244,47.85511034,31.92101065
 C,0,36.67179555,48.99702701,36.56975615
 H,0,37.18953426,49.93608633,36.35099095
 H,0,36.82299906,48.76637653,37.63075654
 H,0,35.59678705,49.16292344,36.43286313
 C,0,36.62500834,44.13976137,35.03260536
 H,0,37.11028034,43.49446031,34.29380619
 H,0,35.54368454,44.10364402,34.8560803
 H,0,36.79731359,43.70593372,36.02467279
 C,0,29.72642724,46.93128313,43.319837
 H,0,29.24577374,47.56933981,44.06791191
 H,0,29.56983141,47.38796362,42.33543677
 H,0,30.80669946,46.9456169,43.50558753
 C,0,29.60527274,42.11254985,41.6696848
 H,0,29.08117808,41.17414375,41.87572393
 H,0,30.67981784,41.93509957,41.7948575
 H,0,29.44746145,42.36306062,40.6140997
 C,0,26.55857617,43.60737112,45.41196233
 H,0,26.89918772,43.81251039,46.43460636
 H,0,26.25889309,42.555608,45.36489164
 H,0,25.66197311,44.21768833,45.2450657
 C,0,29.62133756,44.33044833,35.01430879
 H,0,29.11138865,43.71202222,34.26914314
 H,0,29.44105327,43.88764033,36.00101735
 H,0,30.69988334,44.26307158,34.83065513
 C,0,29.74978205,49.16536792,36.61595925
 H,0,29.27489707,50.12769374,36.40106
 H,0,30.83157656,49.28438967,36.48415496
 H,0,29.58430214,48.93592238,37.67517578
 C,0,26.58850633,47.78485471,32.92852084
 H,0,26.68939037,47.21195959,31.99999665
 H,0,26.6111549,48.84969337,32.67371438
 H,0,25.59133795,47.56797633,33.33499162
 C,0,38.66977056,47.15553717,33.88336382
 C,0,37.17766752,47.88332734,35.67979919
 C,0,37.15459846,45.55405303,34.94285674
 C,0,29.13598915,45.76178992,34.94939557
 C,0,29.19748553,48.08001173,35.71844723
 C,0,27.673494,47.42980911,33.91904037
 C,0,29.17258991,45.52460321,43.37605467
 C,0,29.11535738,43.21458735,42.58282555
 C,0,27.63535794,43.92026627,44.39841634
 Recover connectivity data from disk.
 NAtoms=    108 NQM=    108 NQMF=      0 NMic=      0 NMicF=      0 NTot=    108.
                    Isotopes and Nuclear Properties:
 (Nuclear quadrupole moments (NQMom) in fm**2, nuclear magnetic moments (NMagM)
  in nuclear magnetons)

  Atom         1           2           3           4           5           6           7           8           9          10
 IAtWgt=          16          16          14          14          14          14          12          12          12          12
 AtmWgt=  15.9949146  15.9949146  14.0030740  14.0030740  14.0030740  14.0030740  12.0000000  12.0000000  12.0000000  12.0000000
 NucSpn=           0           0           2           2           2           2           0           0           0           0
 AtZEff=  -5.6000000  -5.6000000  -4.5500000  -4.5500000  -4.5500000  -4.5500000  -3.6000000  -3.6000000  -3.6000000  -3.6000000
 NQMom=    0.0000000   0.0000000   2.0440000   2.0440000   2.0440000   2.0440000   0.0000000   0.0000000   0.0000000   0.0000000
 NMagM=    0.0000000   0.0000000   0.4037610   0.4037610   0.4037610   0.4037610   0.0000000   0.0000000   0.0000000   0.0000000

  Atom        11          12          13          14          15          16          17          18          19          20
 IAtWgt=          12          12          12          12          12          12          12          12          12          12
 AtmWgt=  12.0000000  12.0000000  12.0000000  12.0000000  12.0000000  12.0000000  12.0000000  12.0000000  12.0000000  12.0000000
 NucSpn=           0           0           0           0           0           0           0           0           0           0
 AtZEff=  -3.6000000  -3.6000000  -3.6000000  -3.6000000  -3.6000000  -3.6000000  -3.6000000  -3.6000000  -3.6000000  -3.6000000
 NQMom=    0.0000000   0.0000000   0.0000000   0.0000000   0.0000000   0.0000000   0.0000000   0.0000000   0.0000000   0.0000000
 NMagM=    0.0000000   0.0000000   0.0000000   0.0000000   0.0000000   0.0000000   0.0000000   0.0000000   0.0000000   0.0000000

  Atom        21          22          23          24          25          26          27          28          29          30
 IAtWgt=          12          12          12          12          12          12          12          12          12          12
 AtmWgt=  12.0000000  12.0000000  12.0000000  12.0000000  12.0000000  12.0000000  12.0000000  12.0000000  12.0000000  12.0000000
 NucSpn=           0           0           0           0           0           0           0           0           0           0
 AtZEff=  -3.6000000  -3.6000000  -3.6000000  -3.6000000  -3.6000000  -3.6000000  -3.6000000  -3.6000000  -3.6000000  -3.6000000
 NQMom=    0.0000000   0.0000000   0.0000000   0.0000000   0.0000000   0.0000000   0.0000000   0.0000000   0.0000000   0.0000000
 NMagM=    0.0000000   0.0000000   0.0000000   0.0000000   0.0000000   0.0000000   0.0000000   0.0000000   0.0000000   0.0000000

  Atom        31          32          33          34          35          36          37          38          39          40
 IAtWgt=          12          12          12          12          12          12          12          12          12          12
 AtmWgt=  12.0000000  12.0000000  12.0000000  12.0000000  12.0000000  12.0000000  12.0000000  12.0000000  12.0000000  12.0000000
 NucSpn=           0           0           0           0           0           0           0           0           0           0
 AtZEff=  -3.6000000  -3.6000000  -3.6000000  -3.6000000  -3.6000000  -3.6000000  -3.6000000  -3.6000000  -3.6000000  -3.6000000
 NQMom=    0.0000000   0.0000000   0.0000000   0.0000000   0.0000000   0.0000000   0.0000000   0.0000000   0.0000000   0.0000000
 NMagM=    0.0000000   0.0000000   0.0000000   0.0000000   0.0000000   0.0000000   0.0000000   0.0000000   0.0000000   0.0000000

  Atom        41          42          43          44          45          46          47          48          49          50
 IAtWgt=          12          12           1           1           1           1           1           1           1           1
 AtmWgt=  12.0000000  12.0000000   1.0078250   1.0078250   1.0078250   1.0078250   1.0078250   1.0078250   1.0078250   1.0078250
 NucSpn=           0           0           1           1           1           1           1           1           1           1
 AtZEff=  -3.6000000  -3.6000000  -1.0000000  -1.0000000  -1.0000000  -1.0000000  -1.0000000  -1.0000000  -1.0000000  -1.0000000
 NQMom=    0.0000000   0.0000000   0.0000000   0.0000000   0.0000000   0.0000000   0.0000000   0.0000000   0.0000000   0.0000000
 NMagM=    0.0000000   0.0000000   2.7928460   2.7928460   2.7928460   2.7928460   2.7928460   2.7928460   2.7928460   2.7928460

  Atom        51          52          53          54          55          56          57          58          59          60
 IAtWgt=           1           1           1           1           1           1           1           1           1           1
 AtmWgt=   1.0078250   1.0078250   1.0078250   1.0078250   1.0078250   1.0078250   1.0078250   1.0078250   1.0078250   1.0078250
 NucSpn=           1           1           1           1           1           1           1           1           1           1
 AtZEff=  -1.0000000  -1.0000000  -1.0000000  -1.0000000  -1.0000000  -1.0000000  -1.0000000  -1.0000000  -1.0000000  -1.0000000
 NQMom=    0.0000000   0.0000000   0.0000000   0.0000000   0.0000000   0.0000000   0.0000000   0.0000000   0.0000000   0.0000000
 NMagM=    2.7928460   2.7928460   2.7928460   2.7928460   2.7928460   2.7928460   2.7928460   2.7928460   2.7928460   2.7928460

  Atom        61          62          63          64          65          66          67          68          69          70
 IAtWgt=           1           1           1          12           1           1           1          12           1           1
 AtmWgt=   1.0078250   1.0078250   1.0078250  12.0000000   1.0078250   1.0078250   1.0078250  12.0000000   1.0078250   1.0078250
 NucSpn=           1           1           1           0           1           1           1           0           1           1
 AtZEff=  -1.0000000  -1.0000000  -1.0000000  -3.6000000  -1.0000000  -1.0000000  -1.0000000  -3.6000000  -1.0000000  -1.0000000
 NQMom=    0.0000000   0.0000000   0.0000000   0.0000000   0.0000000   0.0000000   0.0000000   0.0000000   0.0000000   0.0000000
 NMagM=    2.7928460   2.7928460   2.7928460   0.0000000   2.7928460   2.7928460   2.7928460   0.0000000   2.7928460   2.7928460

  Atom        71          72          73          74          75          76          77          78          79          80
 IAtWgt=           1          12           1           1           1          12           1           1           1          12
 AtmWgt=   1.0078250  12.0000000   1.0078250   1.0078250   1.0078250  12.0000000   1.0078250   1.0078250   1.0078250  12.0000000
 NucSpn=           1           0           1           1           1           0           1           1           1           0
 AtZEff=  -1.0000000  -3.6000000  -1.0000000  -1.0000000  -1.0000000  -3.6000000  -1.0000000  -1.0000000  -1.0000000  -3.6000000
 NQMom=    0.0000000   0.0000000   0.0000000   0.0000000   0.0000000   0.0000000   0.0000000   0.0000000   0.0000000   0.0000000
 NMagM=    2.7928460   0.0000000   2.7928460   2.7928460   2.7928460   0.0000000   2.7928460   2.7928460   2.7928460   0.0000000

  Atom        81          82          83          84          85          86          87          88          89          90
 IAtWgt=           1           1           1          12           1           1           1          12           1           1
 AtmWgt=   1.0078250   1.0078250   1.0078250  12.0000000   1.0078250   1.0078250   1.0078250  12.0000000   1.0078250   1.0078250
 NucSpn=           1           1           1           0           1           1           1           0           1           1
 AtZEff=  -1.0000000  -1.0000000  -1.0000000  -3.6000000  -1.0000000  -1.0000000  -1.0000000  -3.6000000  -1.0000000  -1.0000000
 NQMom=    0.0000000   0.0000000   0.0000000   0.0000000   0.0000000   0.0000000   0.0000000   0.0000000   0.0000000   0.0000000
 NMagM=    2.7928460   2.7928460   2.7928460   0.0000000   2.7928460   2.7928460   2.7928460   0.0000000   2.7928460   2.7928460

  Atom        91          92          93          94          95          96          97          98          99         100
 IAtWgt=           1          12           1           1           1          12           1           1           1          12
 AtmWgt=   1.0078250  12.0000000   1.0078250   1.0078250   1.0078250  12.0000000   1.0078250   1.0078250   1.0078250  12.0000000
 NucSpn=           1           0           1           1           1           0           1           1           1           0
 AtZEff=  -1.0000000  -3.6000000  -1.0000000  -1.0000000  -1.0000000  -3.6000000  -1.0000000  -1.0000000  -1.0000000  -3.6000000
 NQMom=    0.0000000   0.0000000   0.0000000   0.0000000   0.0000000   0.0000000   0.0000000   0.0000000   0.0000000   0.0000000
 NMagM=    2.7928460   0.0000000   2.7928460   2.7928460   2.7928460   0.0000000   2.7928460   2.7928460   2.7928460   0.0000000

  Atom       101         102         103         104         105         106         107         108
 IAtWgt=          12          12          12          12          12          12          12          12
 AtmWgt=  12.0000000  12.0000000  12.0000000  12.0000000  12.0000000  12.0000000  12.0000000  12.0000000
 NucSpn=           0           0           0           0           0           0           0           0
 AtZEff=  -3.6000000  -3.6000000  -3.6000000  -3.6000000  -3.6000000  -3.6000000  -3.6000000  -3.6000000
 NQMom=    0.0000000   0.0000000   0.0000000   0.0000000   0.0000000   0.0000000   0.0000000   0.0000000
 NMagM=    0.0000000   0.0000000   0.0000000   0.0000000   0.0000000   0.0000000   0.0000000   0.0000000
 Leave Link  101 at Thu Apr 30 11:49:02 2015, MaxMem= 8053063680 cpu:       7.7
 (Enter /usr/local/apps/g09/l202.exe)
 Symmetry turned off by external request.
 Stoichiometry    C54H48N4O2
 Framework group  C1[X(C54H48N4O2)]
 Deg. of freedom   318
 Full point group                 C1      NOp   1
                         Z-Matrix orientation:                         
 ---------------------------------------------------------------------
 Center     Atomic      Atomic             Coordinates (Angstroms)
 Number     Number       Type             X           Y           Z
 ---------------------------------------------------------------------
      1          8           0       39.746408   44.264738   46.450969
      2          8           0       40.444171   42.482166   45.266060
      3          7           0       33.160396   44.941565   41.094297
      4          7           0       33.156347   46.184538   37.214579
      5          7           0       35.264125   45.481464   39.145742
      6          7           0       31.052695   45.619202   39.155033
      7          6           0       39.688518   43.427168   45.382751
      8          6           0       38.627657   43.795302   44.410653
      9          6           0       38.473628   42.998639   43.268083
     10          6           0       38.171606   48.148912   34.731806
     11          6           0       28.212622   48.393990   34.774729
     12          6           0       28.119584   42.940709   43.529189
     13          6           0       37.495209   43.304120   42.327493
     14          6           0       36.645882   44.410619   42.504755
     15          6           0       36.664030   46.572723   35.786888
     16          6           0       29.662615   46.751000   35.808068
     17          6           0       29.646311   44.518276   42.504861
     18          6           0       36.808754   45.202031   43.654777
     19          6           0       37.787009   44.901239   44.598975
     20          6           0       38.148727   45.864929   34.008014
     21          6           0       28.152961   46.120337   34.020992
     22          6           0       28.177478   45.206883   44.304860
     23          6           0       35.594869   44.743494   41.492383
     24          6           0       35.598400   46.260273   36.804196
     25          6           0       30.720569   46.389593   36.816264
     26          6           0       30.713825   44.839735   41.492331
     27          6           0       36.049530   45.143649   40.223499
     28          6           0       36.042513   45.841785   38.068091
     29          6           0       30.271014   45.988242   38.084170
     30          6           0       30.270378   45.278622   40.234148
     31          6           0       37.411786   45.305568   39.800131
     32          6           0       37.406530   45.720484   38.494560
     33          6           0       28.907813   45.877440   38.516854
     34          6           0       28.907278   45.447406   39.818373
     35          6           0       34.238589   44.640527   41.876353
     36          6           0       34.247837   46.412322   36.425707
     37          6           0       32.074392   46.473798   36.430845
     38          6           0       32.063176   44.678495   41.867868
     39          6           0       33.813080   44.156194   43.188109
     40          6           0       33.847055   46.858830   35.093733
     41          6           0       32.492530   46.897968   35.097367
     42          6           0       32.458841   44.185826   43.183434
     43          1           0       34.465023   43.829523   43.985393
     44          1           0       34.521192   47.104336   34.284908
     45          1           0       31.829120   47.182426   34.292346
     46          1           0       31.782142   43.897232   43.975622
     47          1           0       40.470458   43.925792   47.009528
     48          1           0       38.273759   45.131701   40.426528
     49          1           0       38.260247   45.939083   37.869778
     50          1           0       28.053094   46.100920   37.895001
     51          1           0       28.051773   45.255908   40.449680
     52          1           0       37.906387   45.523464   45.479057
     53          1           0       38.524915   45.074857   33.360830
     54          1           0       27.753562   45.354424   33.358658
     55          1           0       27.817228   45.986378   44.974022
     56          1           0       36.164463   46.064035   43.799591
     57          1           0       37.373422   42.677398   41.448992
     58          1           0       39.126116   42.141364   43.138376
     59          1           0       38.566442   49.160422   34.655926
     60          1           0       27.860249   49.421525   34.707166
     61          1           0       27.714164   41.932399   43.586054
     62          1           0       34.249195   45.484978   39.155913
     63          1           0       32.067485   45.605054   39.145715
     64          6           0       39.720766   47.475116   32.845282
     65          1           0       40.303827   46.587277   32.578326
     66          1           0       40.416445   48.243174   33.201049
     67          1           0       39.264812   47.855110   31.921011
     68          6           0       36.671796   48.997027   36.569756
     69          1           0       37.189534   49.936086   36.350991
     70          1           0       36.822999   48.766377   37.630757
     71          1           0       35.596787   49.162923   36.432863
     72          6           0       36.625008   44.139761   35.032605
     73          1           0       37.110280   43.494460   34.293806
     74          1           0       35.543685   44.103644   34.856080
     75          1           0       36.797314   43.705934   36.024673
     76          6           0       29.726427   46.931283   43.319837
     77          1           0       29.245774   47.569340   44.067912
     78          1           0       29.569831   47.387964   42.335437
     79          1           0       30.806699   46.945617   43.505588
     80          6           0       29.605273   42.112550   41.669685
     81          1           0       29.081178   41.174144   41.875724
     82          1           0       30.679818   41.935100   41.794857
     83          1           0       29.447461   42.363061   40.614100
     84          6           0       26.558576   43.607371   45.411962
     85          1           0       26.899188   43.812510   46.434606
     86          1           0       26.258893   42.555608   45.364892
     87          1           0       25.661973   44.217688   45.245066
     88          6           0       29.621338   44.330448   35.014309
     89          1           0       29.111389   43.712022   34.269143
     90          1           0       29.441053   43.887640   36.001017
     91          1           0       30.699883   44.263072   34.830655
     92          6           0       29.749782   49.165368   36.615959
     93          1           0       29.274897   50.127694   36.401060
     94          1           0       30.831577   49.284390   36.484155
     95          1           0       29.584302   48.935922   37.675176
     96          6           0       26.588506   47.784855   32.928521
     97          1           0       26.689390   47.211960   31.999997
     98          1           0       26.611155   48.849693   32.673714
     99          1           0       25.591338   47.567976   33.334992
    100          6           0       38.669771   47.155537   33.883364
    101          6           0       37.177668   47.883327   35.679799
    102          6           0       37.154598   45.554053   34.942857
    103          6           0       29.135989   45.761790   34.949396
    104          6           0       29.197486   48.080012   35.718447
    105          6           0       27.673494   47.429809   33.919040
    106          6           0       29.172590   45.524603   43.376055
    107          6           0       29.115357   43.214587   42.582826
    108          6           0       27.635358   43.920266   44.398416
 ---------------------------------------------------------------------
 Rotational constants (GHZ):      0.0383195      0.0326582      0.0189173
 Leave Link  202 at Thu Apr 30 11:49:02 2015, MaxMem= 8053063680 cpu:       0.3
 (Enter /usr/local/apps/g09/l301.exe)
 General basis read from cards:  (5D, 7F)
 Centers:   7  8  9 10 11 12 13 14 15 16 17 18 19 20 21 22 23 24 25 26
 Centers:  27 28 29 30 31 32 33 34 35 36 37 38 39 40 41 42 64 68 72 76
 Centers:  80 84 88 92 96100101102103104105106107108 43 44 45 46 47 48
 Centers:  49 50 51 52 53 54 55 56 57 58 59 60 61 62 63 65 66 67 69 70
 Centers:  71 73 74 75 77 78 79 81 82 83 85 86 87 89 90 91 93 94 95 97
 Centers:  98 99  3  4  5  6  1  2
 6-31G*
 ****
 Ernie: Thresh=  0.10000D-02 Tol=  0.10000D-05 Strict=F.
 Integral buffers will be    131072 words long.
 Raffenetti 2 integral format.
 Two-electron integral symmetry is turned off.
   936 basis functions,  1872 primitive gaussians,   996 cartesian basis functions
   208 alpha electrons      208 beta electrons
       nuclear repulsion energy      8015.3209769500 Hartrees.
 IExCor=  402 DFT=T Ex+Corr=B3LYP ExCW=0 ScaHFX=  0.200000
 ScaDFX=  0.800000  0.720000  1.000000  0.810000 ScalE2=  1.000000  1.000000
 IRadAn=      0 IRanWt=     -1 IRanGd=            0 ICorTp=0
 NAtoms=  108 NActive=  108 NUniq=  108 SFac= 7.50D-01 NAtFMM=   80 NAOKFM=T Big=T
 Leave Link  301 at Thu Apr 30 11:49:02 2015, MaxMem= 8053063680 cpu:       1.7
 (Enter /usr/local/apps/g09/l302.exe)
 NPDir=0 NMtPBC=     1 NCelOv=     1 NCel=       1 NClECP=     1 NCelD=      1
         NCelK=      1 NCelE2=     1 NClLst=     1 CellRange=     0.0.
 One-electron integrals computed using PRISM.
 NBasis=   936 RedAO= T  NBF=   936
 NBsUse=   936 1.00D-06 NBFU=   936
 Precomputing XC quadrature grid using
 IXCGrd= 2 IRadAn=           0 IRanWt=          -1 IRanGd=           0 AccXCQ= 1.00D-10.
 NRdTot=    7024 NPtTot=      899498 NUsed=      950083 NTot=      950115
 NSgBfM=   879   887   887   887   887 NAtAll=   108   108.
 Leave Link  302 at Thu Apr 30 11:49:09 2015, MaxMem= 8053063680 cpu:     110.6
 (Enter /usr/local/apps/g09/l308.exe)
 Leave Link  308 at Thu Apr 30 11:49:10 2015, MaxMem= 8053063680 cpu:      14.0
 (Enter /usr/local/apps/g09/l303.exe)
 DipDrv:  MaxL=1.
 Leave Link  303 at Thu Apr 30 11:49:11 2015, MaxMem= 8053063680 cpu:      10.8
 (Enter /usr/local/apps/g09/l401.exe)
 Initial guess read from the checkpoint file:  fb3mescooh.chk
 B after Tr=     0.000000    0.000000    0.000000
         Rot=    1.000000    0.000000    0.000000    0.000000 Ang=   0.00 deg.
 Guess basis will be translated and rotated to current coordinates.
 Leave Link  401 at Thu Apr 30 11:49:24 2015, MaxMem= 8053063680 cpu:     199.5
 (Enter /usr/local/apps/g09/l502.exe)
 Closed shell SCF:
 Requested convergence on RMS density matrix=1.00D-08 within 128 cycles.
 Requested convergence on MAX density matrix=1.00D-06.
 Requested convergence on             energy=1.00D-06.
 No special actions if energy rises.
 Using DIIS extrapolation, IDIIS=  1040.
 Two-electron integral symmetry not used.
       949098 words used for storage of precomputed grid.
 IEnd=     3965420 IEndB=     3965420 NGot=  8053063680 MDV=  8050107913
 LenX=  8050107913 LenY=  8049114901
 Fock matrices will be formed incrementally for  20 cycles.

 Cycle   1  Pass 1  IDiag  1:
 FoFCou: FMM=T IPFlag=           0 FMFlag=      100000 FMFlg1=        2001
         NFxFlg=           0 DoJE=F BraDBF=F KetDBF=F FulRan=T
         Omega=  0.000000  0.000000  1.000000  0.000000  0.000000 ICntrl=       0 IOpCl=  0
         NMat0=    1 NMatS0=    1 NMatT0=    0 NMatD0=    1 NMtDS0=    0 NMtDT0=    0
         I1Cent=           0 NGrid=           0.
 Symmetry not used in FoFCou.
 FMM levels:  10  Number of levels for PrismC:   9
 E= -2456.13055226429    
 DIIS: error= 3.26D-08 at cycle   1 NSaved=   1.
 NSaved= 1 IEnMin= 1 EnMin= -2456.13055226429     IErMin= 1 ErrMin= 3.26D-08
 ErrMax= 3.26D-08 EMaxC= 1.00D-01 BMatC= 5.42D-13 BMatP= 5.42D-13
 IDIUse=1 WtCom= 1.00D+00 WtEn= 0.00D+00
 Coeff-Com:  0.100D+01
 Coeff:      0.100D+01
 Gap=     0.100 Goal=   None    Shift=    0.000
 RMSDP=3.24D-09 MaxDP=2.42D-07              OVMax= 1.15D-06

 SCF Done:  E(RB3LYP) =  -2456.13055226     A.U. after    1 cycles
             Convg  =    0.3236D-08             -V/T =  2.0065
 KE= 2.440222147822D+03 PE=-2.173508449398D+04 EE= 8.823410816942D+03
 Leave Link  502 at Thu Apr 30 11:50:12 2015, MaxMem= 8053063680 cpu:     773.3
 (Enter /usr/local/apps/g09/l801.exe)
 ExpMin= 1.61D-01 ExpMax= 5.48D+03 ExpMxC= 8.25D+02 IAcc=1 IRadAn=         1 AccDes= 0.00D+00
 HarFok:  IExCor=  205 AccDes= 0.00D+00 IRadAn=         1 IDoV=-2
 ScaDFX=  1.000000  1.000000  1.000000  1.000000
 Largest valence mixing into a core orbital is  4.67D-05
 Largest core mixing into a valence orbital is  3.18D-05
 Range of M.O.s used for correlation:    61   936
 NBasis=   936 NAE=   208 NBE=   208 NFC=    60 NFV=     0
 NROrb=    876 NOA=   148 NOB=   148 NVA=   728 NVB=   728

 **** Warning!!: The smallest alpha delta epsilon is  0.99743498D-01

 Leave Link  801 at Thu Apr 30 11:50:14 2015, MaxMem= 8053063680 cpu:      19.3
 (Enter /usr/local/apps/g09/l914.exe)
 RHF ground state
 MDV=  8053063680 DFT=T DoStab=F Mixed=T DoRPA=T DoScal=F NonHer=T
 Would need an additional362423100000 words for in-memory AO integral storage.
 Making orbital integer symmetry assigments:
 Restoring state from the checkpoint file.
   10 states for AA,BB on restart file.
    10 initial guesses have been made.
 Convergence on wavefunction:    0.001000000000000
 Davidson Disk Diagonalization:  ConvIn= 1.00D-03 SkipCon=T Conv= 1.00D-03.
 Max sub-space:   200 roots to seek:    20 dimension of matrix: 215488
 Iteration     1 Dimension    30 NMult    30
 CISAX:  IP= 16 NPass=   1 NMax=    30.
 CISAX will form    30 AO SS matrices at one time.
 NMat=    30 NSing=    30.
 FoFCou: FMM=T IPFlag=           0 FMFlag=      100000 FMFlg1=        2001
         NFxFlg=           0 DoJE=F BraDBF=F KetDBF=F FulRan=T
         Omega=  0.000000  0.000000  1.000000  0.000000  0.000000 ICntrl=       0 IOpCl=  0
         NMat0=   30 NMatS0=   30 NMatT0=    0 NMatD0=   30 NMtDS0=    0 NMtDT0=    0
         I1Cent=           0 NGrid=           0.
 Symmetry not used in FoFCou.
 FMM levels:  10  Number of levels for PrismC:   9
 CISAX:  IP= 16 NPass=   1 NMax=    30.
 CISAX will form    30 AO SS matrices at one time.
 NMat=    30 NSing=    30.
 New state     11 was old state     13
 New state     12 was old state     17
 New state     13 was old state     18
 New state     14 was old state     19
 New state     17 was old state     20
 New state     18 was old state     14
 New state     19 was old state     11
 New state     20 was old state     12
 Excitation Energies [eV] at current iteration:
 Root      1 :     2.158638780160205
 Root      2 :     2.312407368535383
 Root      3 :     3.124241184315334
 Root      4 :     3.204350783796684
 Root      5 :     3.310111986941475
 Root      6 :     3.348127805994683
 Root      7 :     3.381518227843805
 Root      8 :     3.403971366316886
 Root      9 :     3.417716985441665
 Root     10 :     3.479466925172364
 Root     11 :     3.550608087935914
 Root     12 :     3.562134714335202
 Root     13 :     3.580245035279261
 Root     14 :     3.590988031976223
 Root     15 :     3.603166810352321
 Root     16 :     3.607252566595343
 Root     17 :     3.644686174657262
 Root     18 :     3.758835670730500
 Root     19 :     4.257229059833894
 Root     20 :     5.008193112430249
 Iteration     2 Dimension    70 NMult    70
 CISAX:  IP= 16 NPass=   1 NMax=    40.
 CISAX will form    40 AO SS matrices at one time.
 NMat=    40 NSing=    40.
 CISAX:  IP= 16 NPass=   1 NMax=    40.
 CISAX will form    40 AO SS matrices at one time.
 NMat=    40 NSing=    40.
 Root      1 has converged.
 Root      2 has converged.
 Root      3 has converged.
 Root      4 has converged.
 Root      5 has converged.
 Root      6 has converged.
 Root      7 has converged.
 Root      8 has converged.
 Root      9 has converged.
 Root     10 has converged.
 Root     11 not converged, maximum delta is    0.052148928933171
 Root     12 not converged, maximum delta is    0.276170161541652
 New state     13 was old state     18
 Root     13 not converged, maximum delta is    0.331636809362664
 New state     14 was old state     13
 Root     14 not converged, maximum delta is    0.165272230555639
 New state     15 was old state     14
 Root     15 not converged, maximum delta is    0.178596614030062
 New state     16 was old state     15
 Root     16 not converged, maximum delta is    0.286291610790757
 New state     17 was old state     16
 Root     17 not converged, maximum delta is    0.395988550055184
 New state     18 was old state     17
 Root     18 not converged, maximum delta is    0.033638669353292
 New state     19 was old state     20
 Root     19 not converged, maximum delta is    0.379279836049986
 New state     20 was old state     19
 Root     20 not converged, maximum delta is    0.705287852267298
 Excitation Energies [eV] at current iteration:
 Root      1 :     2.158629752193868   Change is   -0.000009027966337
 Root      2 :     2.312404529633785   Change is   -0.000002838901598
 Root      3 :     3.124228929061088   Change is   -0.000012255254246
 Root      4 :     3.204347463273096   Change is   -0.000003320523588
 Root      5 :     3.310110599196434   Change is   -0.000001387745041
 Root      6 :     3.348114326896597   Change is   -0.000013479098086
 Root      7 :     3.381518068295404   Change is   -0.000000159548400
 Root      8 :     3.403970621648292   Change is   -0.000000744668594
 Root      9 :     3.417716725253204   Change is   -0.000000260188461
 Root     10 :     3.479464273690499   Change is   -0.000002651481864
 Root     11 :     3.529871978126526   Change is   -0.020736109809388
 Root     12 :     3.539330508975338   Change is   -0.022804205359864
 Root     13 :     3.545883373399218   Change is   -0.212952297331282
 Root     14 :     3.563624868224732   Change is   -0.016620167054528
 Root     15 :     3.571631811665898   Change is   -0.019356220310325
 Root     16 :     3.595886085336776   Change is   -0.007280725015545
 Root     17 :     3.599701369428653   Change is   -0.007551197166689
 Root     18 :     3.638329118905681   Change is   -0.006357055751581
 Root     19 :     3.737955847112532   Change is   -1.270237265317718
 Root     20 :     3.920276092352739   Change is   -0.336952967481155
 Iteration     3 Dimension    90 NMult    90
 CISAX:  IP= 16 NPass=   1 NMax=    20.
 CISAX will form    20 AO SS matrices at one time.
 NMat=    20 NSing=    20.
 CISAX:  IP= 16 NPass=   1 NMax=    20.
 CISAX will form    20 AO SS matrices at one time.
 NMat=    20 NSing=    20.
 Root      1 has converged.
 Root      2 has converged.
 Root      3 has converged.
 Root      4 has converged.
 Root      5 has converged.
 Root      6 has converged.
 Root      7 has converged.
 Root      8 has converged.
 Root      9 has converged.
 Root     10 has converged.
 New state     11 was old state     20
 Root     11 not converged, maximum delta is    0.390736309413679
 New state     12 was old state     13
 Root     12 not converged, maximum delta is    0.359192677428308
 New state     13 was old state     11
 Root     13 not converged, maximum delta is    0.015952993518626
 New state     14 was old state     12
 Root     14 not converged, maximum delta is    0.349987487602964
 New state     15 was old state     14
 Root     15 not converged, maximum delta is    0.089648719808966
 New state     16 was old state     15
 Root     16 not converged, maximum delta is    0.104326108853104
 New state     17 was old state     19
 Root     17 not converged, maximum delta is    0.411364160406078
 New state     18 was old state     16
 Root     18 not converged, maximum delta is    0.144884413860887
 New state     19 was old state     17
 Root     19 not converged, maximum delta is    0.074946336713019
 New state     20 was old state     18
 Root     20 not converged, maximum delta is    0.095443050941711
 Excitation Energies [eV] at current iteration:
 Root      1 :     2.158629698646954   Change is   -0.000000053546914
 Root      2 :     2.312404516181864   Change is   -0.000000013451921
 Root      3 :     3.124228800715654   Change is   -0.000000128345434
 Root      4 :     3.204347406390846   Change is   -0.000000056882250
 Root      5 :     3.310110574113792   Change is   -0.000000025082643
 Root      6 :     3.348114159070091   Change is   -0.000000167826506
 Root      7 :     3.381518066170123   Change is   -0.000000002125282
 Root      8 :     3.403970611814427   Change is   -0.000000009833865
 Root      9 :     3.417716719846833   Change is   -0.000000005406371
 Root     10 :     3.479464060525970   Change is   -0.000000213164530
 Root     11 :     3.505460819493907   Change is   -0.414815272858832
 Root     12 :     3.516573346065212   Change is   -0.029310027334006
 Root     13 :     3.529085219240715   Change is   -0.000786758885811
 Root     14 :     3.541301150923178   Change is    0.001970641947840
 Root     15 :     3.561697508309234   Change is   -0.001927359915498
 Root     16 :     3.570136266280981   Change is   -0.001495545384917
 Root     17 :     3.584500502389923   Change is   -0.153455344722610
 Root     18 :     3.596149874612371   Change is    0.000263789275595
 Root     19 :     3.600147469024805   Change is    0.000446099596152
 Root     20 :     3.638512963037400   Change is    0.000183844131720
 Iteration     4 Dimension   110 NMult   110
 CISAX:  IP= 16 NPass=   1 NMax=    20.
 CISAX will form    20 AO SS matrices at one time.
 NMat=    20 NSing=    20.
 CISAX:  IP= 16 NPass=   1 NMax=    20.
 CISAX will form    20 AO SS matrices at one time.
 NMat=    20 NSing=    20.
 Root      1 has converged.
 Root      2 has converged.
 Root      3 has converged.
 Root      4 has converged.
 Root      5 has converged.
 Root      6 has converged.
 Root      7 has converged.
 Root      8 has converged.
 Root      9 has converged.
 Root     10 has converged.
 Root     11 not converged, maximum delta is    0.175871819347713
 Root     12 not converged, maximum delta is    0.197516607153493
 Root     13 not converged, maximum delta is    0.002916182214291
 New state     14 was old state     17
 Root     14 not converged, maximum delta is    0.250769015457439
 New state     15 was old state     14
 Root     15 not converged, maximum delta is    0.261881328219419
 New state     16 was old state     15
 Root     16 not converged, maximum delta is    0.208495539380914
 New state     17 was old state     16
 Root     17 not converged, maximum delta is    0.181271529153364
 Root     18 not converged, maximum delta is    0.163730347966288
 Root     19 not converged, maximum delta is    0.147454208540543
 Root     20 not converged, maximum delta is    0.485723123150371
 Excitation Energies [eV] at current iteration:
 Root      1 :     2.158629611423720   Change is   -0.000000087223234
 Root      2 :     2.312404477829757   Change is   -0.000000038352107
 Root      3 :     3.124228694022179   Change is   -0.000000106693475
 Root      4 :     3.204347374568639   Change is   -0.000000031822206
 Root      5 :     3.310110553003127   Change is   -0.000000021110664
 Root      6 :     3.348114046426591   Change is   -0.000000112643501
 Root      7 :     3.381518064019632   Change is   -0.000000002150490
 Root      8 :     3.403970591001594   Change is   -0.000000020812834
 Root      9 :     3.417716708031668   Change is   -0.000000011815165
 Root     10 :     3.479463889698460   Change is   -0.000000170827509
 Root     11 :     3.488273324799563   Change is   -0.017187494694344
 Root     12 :     3.510346144894461   Change is   -0.006227201170752
 Root     13 :     3.528770833150727   Change is   -0.000314386089988
 Root     14 :     3.540563076996576   Change is   -0.043937425393346
 Root     15 :     3.541137873107183   Change is   -0.000163277815996
 Root     16 :     3.562918594653728   Change is    0.001221086344494
 Root     17 :     3.570979591794179   Change is    0.000843325513198
 Root     18 :     3.594069622597367   Change is   -0.002080252015004
 Root     19 :     3.599353465631067   Change is   -0.000794003393738
 Root     20 :     3.621028245894514   Change is   -0.017484717142886
 Iteration     5 Dimension   130 NMult   130
 CISAX:  IP= 16 NPass=   1 NMax=    20.
 CISAX will form    20 AO SS matrices at one time.
 NMat=    20 NSing=    20.
 CISAX:  IP= 16 NPass=   1 NMax=    20.
 CISAX will form    20 AO SS matrices at one time.
 NMat=    20 NSing=    20.
 Root      1 has converged.
 Root      2 has converged.
 Root      3 has converged.
 Root      4 has converged.
 Root      5 has converged.
 Root      6 has converged.
 Root      7 has converged.
 Root      8 has converged.
 Root      9 has converged.
 Root     10 has converged.
 Root     11 not converged, maximum delta is    0.014574521888119
 Root     12 not converged, maximum delta is    0.008340789700413
 Root     13 not converged, maximum delta is    0.005913917579595
 Root     14 not converged, maximum delta is    0.213847731207662
 Root     15 not converged, maximum delta is    0.248116804809499
 Root     16 not converged, maximum delta is    0.021245923987758
 Root     17 not converged, maximum delta is    0.012532995928983
 Root     18 not converged, maximum delta is    0.108627652708269
 Root     19 not converged, maximum delta is    0.094989431970862
 Root     20 not converged, maximum delta is    0.081274706688872
 Excitation Energies [eV] at current iteration:
 Root      1 :     2.158629515872821   Change is   -0.000000095550899
 Root      2 :     2.312404456381867   Change is   -0.000000021447889
 Root      3 :     3.124228592696753   Change is   -0.000000101325426
 Root      4 :     3.204347342152045   Change is   -0.000000032416595
 Root      5 :     3.310110535780804   Change is   -0.000000017222323
 Root      6 :     3.348113891245684   Change is   -0.000000155180907
 Root      7 :     3.381518061156010   Change is   -0.000000002863621
 Root      8 :     3.403970582506149   Change is   -0.000000008495444
 Root      9 :     3.417716693674609   Change is   -0.000000014357059
 Root     10 :     3.479463810027471   Change is   -0.000000079670989
 Root     11 :     3.486362323394039   Change is   -0.001911001405523
 Root     12 :     3.509766148654039   Change is   -0.000579996240422
 Root     13 :     3.528744214826640   Change is   -0.000026618324087
 Root     14 :     3.533128190530259   Change is   -0.007434886466318
 Root     15 :     3.541006207161395   Change is   -0.000131665945787
 Root     16 :     3.562729356124823   Change is   -0.000189238528904
 Root     17 :     3.570861873214044   Change is   -0.000117718580135
 Root     18 :     3.592787703817919   Change is   -0.001281918779448
 Root     19 :     3.598990324803911   Change is   -0.000363140827156
 Root     20 :     3.610349843119191   Change is   -0.010678402775323
 Iteration     6 Dimension   150 NMult   150
 CISAX:  IP= 16 NPass=   1 NMax=    20.
 CISAX will form    20 AO SS matrices at one time.
 NMat=    20 NSing=    20.
 CISAX:  IP= 16 NPass=   1 NMax=    20.
 CISAX will form    20 AO SS matrices at one time.
 NMat=    20 NSing=    20.
 Root      1 has converged.
 Root      2 has converged.
 Root      3 has converged.
 Root      4 has converged.
 Root      5 has converged.
 Root      6 has converged.
 Root      7 has converged.
 Root      8 has converged.
 Root      9 has converged.
 Root     10 has converged.
 Root     11 not converged, maximum delta is    0.001737956092198
 Root     12 not converged, maximum delta is    0.001145036367718
 Root     13 not converged, maximum delta is    0.002067899198014
 Root     14 not converged, maximum delta is    0.007132912972345
 Root     15 not converged, maximum delta is    0.001466449702973
 Root     16 not converged, maximum delta is    0.002016116475450
 Root     17 not converged, maximum delta is    0.001355711391512
 Root     18 not converged, maximum delta is    0.017429728634491
 Root     19 not converged, maximum delta is    0.016852797664024
 Root     20 not converged, maximum delta is    0.014911285675336
 Excitation Energies [eV] at current iteration:
 Root      1 :     2.158629436616195   Change is   -0.000000079256625
 Root      2 :     2.312404430394981   Change is   -0.000000025986886
 Root      3 :     3.124228528518699   Change is   -0.000000064178053
 Root      4 :     3.204347300233617   Change is   -0.000000041918428
 Root      5 :     3.310110517253548   Change is   -0.000000018527256
 Root      6 :     3.348113752624223   Change is   -0.000000138621460
 Root      7 :     3.381518059324560   Change is   -0.000000001831450
 Root      8 :     3.403970571710939   Change is   -0.000000010795211
 Root      9 :     3.417716685346103   Change is   -0.000000008328506
 Root     10 :     3.479463774482806   Change is   -0.000000035544665
 Root     11 :     3.486034480552936   Change is   -0.000327842841103
 Root     12 :     3.509669862280601   Change is   -0.000096286373438
 Root     13 :     3.528738259941165   Change is   -0.000005954885475
 Root     14 :     3.532022912354823   Change is   -0.001105278175436
 Root     15 :     3.540996548011313   Change is   -0.000009659150082
 Root     16 :     3.562710094221138   Change is   -0.000019261903686
 Root     17 :     3.570850207638706   Change is   -0.000011665575337
 Root     18 :     3.592537580845001   Change is   -0.000250122972918
 Root     19 :     3.598926494871821   Change is   -0.000063829932090
 Root     20 :     3.609329285140501   Change is   -0.001020557978690
 Iteration     7 Dimension   170 NMult   170
 CISAX:  IP= 16 NPass=   1 NMax=    20.
 CISAX will form    20 AO SS matrices at one time.
 NMat=    20 NSing=    20.
 CISAX:  IP= 16 NPass=   1 NMax=    20.
 CISAX will form    20 AO SS matrices at one time.
 NMat=    20 NSing=    20.
 Root      1 has converged.
 Root      2 has converged.
 Root      3 has converged.
 Root      4 has converged.
 Root      5 has converged.
 Root      6 has converged.
 Root      7 has converged.
 Root      8 has converged.
 Root      9 has converged.
 Root     10 has converged.
 Root     11 not converged, maximum delta is    0.001444963891715
 Root     12 has converged.
 Root     13 has converged.
 Root     14 not converged, maximum delta is    0.001490187932844
 Root     15 has converged.
 Root     16 has converged.
 Root     17 has converged.
 Root     18 not converged, maximum delta is    0.003161605268792
 Root     19 not converged, maximum delta is    0.003473801969358
 Root     20 not converged, maximum delta is    0.002919993473040
 Excitation Energies [eV] at current iteration:
 Root      1 :     2.158629365332411   Change is   -0.000000071283784
 Root      2 :     2.312404409475113   Change is   -0.000000020919869
 Root      3 :     3.124228473193658   Change is   -0.000000055325041
 Root      4 :     3.204347264034134   Change is   -0.000000036199482
 Root      5 :     3.310110500554912   Change is   -0.000000016698636
 Root      6 :     3.348113655754933   Change is   -0.000000096869290
 Root      7 :     3.381518056478942   Change is   -0.000000002845618
 Root      8 :     3.403970565523582   Change is   -0.000000006187356
 Root      9 :     3.417716680606348   Change is   -0.000000004739755
 Root     10 :     3.479463751163543   Change is   -0.000000023319262
 Root     11 :     3.485899661200317   Change is   -0.000134819352619
 Root     12 :     3.509640927646202   Change is   -0.000028934634399
 Root     13 :     3.528737352680394   Change is   -0.000000907260771
 Root     14 :     3.531877588950763   Change is   -0.000145323404060
 Root     15 :     3.540994951058820   Change is   -0.000001596952493
 Root     16 :     3.562706596890992   Change is   -0.000003497330146
 Root     17 :     3.570847862445230   Change is   -0.000002345193476
 Root     18 :     3.592482044830874   Change is   -0.000055536014127
 Root     19 :     3.598912983368350   Change is   -0.000013511503471
 Root     20 :     3.609159862188637   Change is   -0.000169422951864
 Iteration     8 Dimension   180 NMult   180
 CISAX:  IP=  1 NPass=   1 NMax=    10.
 CISAX will form    10 AO SS matrices at one time.
 NMat=    10 NSing=    10.
 CISAX:  IP=  1 NPass=   1 NMax=    10.
 CISAX will form    10 AO SS matrices at one time.
 NMat=    10 NSing=    10.
 Root      1 has converged.
 Root      2 has converged.
 Root      3 has converged.
 Root      4 has converged.
 Root      5 has converged.
 Root      6 has converged.
 Root      7 has converged.
 Root      8 has converged.
 Root      9 has converged.
 Root     10 has converged.
 Root     11 not converged, maximum delta is    0.003084319658328
 Root     12 not converged, maximum delta is    0.003182672355355
 Root     13 has converged.
 Root     14 not converged, maximum delta is    0.001876821828359
 Root     15 has converged.
 Root     16 has converged.
 Root     17 has converged.
 Root     18 not converged, maximum delta is    0.001440383778419
 Root     19 not converged, maximum delta is    0.001810184095765
 Root     20 not converged, maximum delta is    0.001112436618723
 Excitation Energies [eV] at current iteration:
 Root      1 :     2.158629322752662   Change is   -0.000000042579749
 Root      2 :     2.312404391948256   Change is   -0.000000017526856
 Root      3 :     3.124228443428839   Change is   -0.000000029764819
 Root      4 :     3.204347244235074   Change is   -0.000000019799061
 Root      5 :     3.310110494969333   Change is   -0.000000005585579
 Root      6 :     3.348113619441665   Change is   -0.000000036313268
 Root      7 :     3.381518054821647   Change is   -0.000000001657295
 Root      8 :     3.403970556793904   Change is   -0.000000008729678
 Root      9 :     3.417716678089987   Change is   -0.000000002516361
 Root     10 :     3.479463738727596   Change is   -0.000000012435948
 Root     11 :     3.485038026241639   Change is   -0.000861634958678
 Root     12 :     3.509607014623410   Change is   -0.000033913022792
 Root     13 :     3.528737241925658   Change is   -0.000000110754736
 Root     14 :     3.531751823956598   Change is   -0.000125764994165
 Root     15 :     3.540993746886247   Change is   -0.000001204172573
 Root     16 :     3.562705257919971   Change is   -0.000001338971021
 Root     17 :     3.570846876438594   Change is   -0.000000986006637
 Root     18 :     3.592443270761935   Change is   -0.000038774068939
 Root     19 :     3.598904488761096   Change is   -0.000008494607255
 Root     20 :     3.609114286290038   Change is   -0.000045575898599
 Iteration     9 Dimension   192 NMult   192
 CISAX:  IP=  1 NPass=   1 NMax=    12.
 CISAX will form    12 AO SS matrices at one time.
 NMat=    12 NSing=    12.
 CISAX:  IP=  1 NPass=   1 NMax=    12.
 CISAX will form    12 AO SS matrices at one time.
 NMat=    12 NSing=    12.
 Root      1 has converged.
 Root      2 has converged.
 Root      3 has converged.
 Root      4 has converged.
 Root      5 has converged.
 Root      6 has converged.
 Root      7 has converged.
 Root      8 has converged.
 Root      9 has converged.
 Root     10 has converged.
 Root     11 has converged.
 Root     12 not converged, maximum delta is    0.001365331680541
 Root     13 has converged.
 Root     14 has converged.
 Root     15 has converged.
 Root     16 has converged.
 Root     17 has converged.
 Root     18 has converged.
 Root     19 has converged.
 Root     20 has converged.
 Excitation Energies [eV] at current iteration:
 Root      1 :     2.158629277930042   Change is   -0.000000044822621
 Root      2 :     2.312404380503517   Change is   -0.000000011444739
 Root      3 :     3.124228392186695   Change is   -0.000000051242144
 Root      4 :     3.204347232698297   Change is   -0.000000011536776
 Root      5 :     3.310110491002233   Change is   -0.000000003967100
 Root      6 :     3.348113565786627   Change is   -0.000000053655039
 Root      7 :     3.381518053086425   Change is   -0.000000001735221
 Root      8 :     3.403970553364113   Change is   -0.000000003429790
 Root      9 :     3.417716674360077   Change is   -0.000000003729910
 Root     10 :     3.479463726634981   Change is   -0.000000012092615
 Root     11 :     3.485005408882929   Change is   -0.000032617358710
 Root     12 :     3.509291558565466   Change is   -0.000315456057944
 Root     13 :     3.528737217323147   Change is   -0.000000024602511
 Root     14 :     3.531743820500634   Change is   -0.000008003455964
 Root     15 :     3.540991200177082   Change is   -0.000002546709165
 Root     16 :     3.562705034898828   Change is   -0.000000223021143
 Root     17 :     3.570846641012007   Change is   -0.000000235426587
 Root     18 :     3.592440961783853   Change is   -0.000002308978082
 Root     19 :     3.598903949643582   Change is   -0.000000539117514
 Root     20 :     3.609109620476264   Change is   -0.000004665813774
 Iteration    10 Dimension   194 NMult   194
 CISAX:  IP=  1 NPass=   1 NMax=     2.
 CISAX will form     2 AO SS matrices at one time.
 NMat=     2 NSing=     2.
 CISAX:  IP=  1 NPass=   1 NMax=     2.
 CISAX will form     2 AO SS matrices at one time.
 NMat=     2 NSing=     2.
 Root      1 has converged.
 Root      2 has converged.
 Root      3 has converged.
 Root      4 has converged.
 Root      5 has converged.
 Root      6 has converged.
 Root      7 has converged.
 Root      8 has converged.
 Root      9 has converged.
 Root     10 has converged.
 Root     11 has converged.
 Root     12 has converged.
 Root     13 has converged.
 Root     14 has converged.
 Root     15 has converged.
 Root     16 has converged.
 Root     17 has converged.
 Root     18 has converged.
 Root     19 has converged.
 Root     20 has converged.
 Excitation Energies [eV] at current iteration:
 Root      1 :     2.158629274472720   Change is   -0.000000003457321
 Root      2 :     2.312404362872126   Change is   -0.000000017631391
 Root      3 :     3.124228388116328   Change is   -0.000000004070368
 Root      4 :     3.204347223875262   Change is   -0.000000008823035
 Root      5 :     3.310110481020647   Change is   -0.000000009981586
 Root      6 :     3.348113514745969   Change is   -0.000000051040658
 Root      7 :     3.381518052651632   Change is   -0.000000000434794
 Root      8 :     3.403970552697125   Change is   -0.000000000666989
 Root      9 :     3.417716672822387   Change is   -0.000000001537690
 Root     10 :     3.479463718858436   Change is   -0.000000007776544
 Root     11 :     3.485005270111356   Change is   -0.000000138771573
 Root     12 :     3.509280095484864   Change is   -0.000011463080602
 Root     13 :     3.528737211548948   Change is   -0.000000005774199
 Root     14 :     3.531743791809731   Change is   -0.000000028690903
 Root     15 :     3.540991089232732   Change is   -0.000000110944350
 Root     16 :     3.562704951491637   Change is   -0.000000083407191
 Root     17 :     3.570846611163873   Change is   -0.000000029848134
 Root     18 :     3.592440951495147   Change is   -0.000000010288706
 Root     19 :     3.598903944982660   Change is   -0.000000004660923
 Root     20 :     3.609109465380141   Change is   -0.000000155096123
 Convergence achieved on expansion vectors.
 ***********************************************************************
 Excited states from <AA,BB:AA,BB> singles matrix:
 ***********************************************************************
 
 1PDM for each excited state written to RWF  633
 Ground to excited state transition electric dipole moments (Au):
       state          X           Y           Z        Dip. S.      Osc.
         1         0.5883     -0.0626      0.1373      0.3689      0.0195
         2         0.1565     -0.2198      0.6928      0.5528      0.0313
         3         3.1003     -0.3689      0.9535     10.6569      0.8157
         4         1.0242      0.8727     -2.6819      9.0030      0.7068
         5        -0.0433      0.3073     -0.9194      0.9416      0.0764
         6         0.1046     -0.7632      2.2990      5.8790      0.4822
         7        -0.0009      0.0125     -0.0264      0.0009      0.0001
         8         0.0226      0.0055     -0.0348      0.0018      0.0001
         9        -0.0239      0.0090     -0.0382      0.0021      0.0002
        10         0.0222      0.0082      0.0847      0.0077      0.0007
        11         0.0459      0.0004      0.0082      0.0022      0.0002
        12        -0.0632     -0.0421      0.1340      0.0237      0.0020
        13         0.0157     -0.0306      0.0242      0.0018      0.0002
        14         0.2075     -0.2484      0.6795      0.5665      0.0490
        15        -0.1937      0.0499     -0.1442      0.0608      0.0053
        16         0.0077     -0.0965      0.2618      0.0779      0.0068
        17         0.0625      0.0700     -0.2109      0.0533      0.0047
        18         0.9564     -0.2876      0.8108      1.6549      0.1457
        19        -0.3367      0.1442     -0.4200      0.3106      0.0274
        20        -1.0628      0.4337     -1.2363      2.8460      0.2516
 Ground to excited state transition velocity dipole moments (Au):
       state          X           Y           Z        Dip. S.      Osc.
         1        -0.0398      0.0047     -0.0105      0.0017      0.0144
         2        -0.0131      0.0170     -0.0538      0.0034      0.0264
         3        -0.3381      0.0415     -0.1060      0.1273      0.7391
         4        -0.1126     -0.0980      0.3052      0.1154      0.6534
         5         0.0048     -0.0354      0.1072      0.0128      0.0700
         6        -0.0098      0.0890     -0.2711      0.0815      0.4417
         7         0.0002     -0.0014      0.0029      0.0000      0.0001
         8        -0.0030     -0.0011      0.0037      0.0000      0.0001
         9         0.0029     -0.0006      0.0050      0.0000      0.0002
        10        -0.0027      0.0039     -0.0085      0.0001      0.0005
        11        -0.0055      0.0006     -0.0012      0.0000      0.0002
        12         0.0081      0.0056     -0.0170      0.0004      0.0020
        13        -0.0019      0.0003     -0.0039      0.0000      0.0001
        14        -0.0257      0.0342     -0.0838      0.0088      0.0455
        15         0.0211     -0.0072      0.0213      0.0010      0.0049
        16        -0.0043      0.0138     -0.0366      0.0016      0.0079
        17        -0.0046     -0.0098      0.0294      0.0010      0.0050
        18        -0.1189      0.0371     -0.1046      0.0264      0.1336
        19         0.0431     -0.0191      0.0542      0.0052      0.0260
        20         0.1374     -0.0550      0.1573      0.0467      0.2345
 Ground to excited state transition magnetic dipole moments (Au):
       state          X           Y           Z
         1        -1.2599     -2.3319      3.7112
         2        -5.8935      2.4593      2.2006
         3       -12.2311    -18.3386     31.7006
         4        33.5584    -27.6707      3.5225
         5        11.8765     -4.6368     -2.0528
         6       -29.8745     16.6993      6.5970
         7         0.3210     -0.1753     -0.1761
         8         0.4706     -0.4261      0.1169
         9         0.4667     -0.1424     -0.2846
        10        -1.0237      0.3718      0.4819
        11        -0.1005     -0.3523      0.5489
        12        -1.8984      1.4750     -0.3967
        13        -0.4018      0.1063      0.2271
        14        -9.8093      3.4338      4.4338
        15         2.3668      0.1955     -2.2848
        16        -4.1677      1.9874      1.2574
        17         3.2669     -2.1888     -0.2350
        18       -11.7384     -2.2299     12.5469
        19         6.0799     -0.2691     -4.9189
        20        17.5984      0.2814    -15.2691
 <0|del|b> * <b|rxdel|0> + <0|del|b> * <b|delr+rdel|0>
 Rotatory Strengths (R) in cgs (10**-40 erg-esu-cm/Gauss)
       state          XX          YY          ZZ    R(velocity)
         1        -0.3039      0.4313      2.3596      0.8290
 Total R(velocity) tensor for State=          1
                 1             2             3 
      1  -0.303886D+00  0.489830D+01  0.333043D+01
      2  -0.492929D+00  0.431296D+00  0.206005D+01
      3  -0.300154D+00  0.274742D+01  0.235961D+01
         2         2.7177      6.6580     -4.1079      1.7559
 Total R(velocity) tensor for State=          2
                 1             2             3 
      1   0.271766D+01 -0.812952D+01 -0.323177D+01
      2  -0.462751D+01  0.665801D+01  0.323151D+01
      3   0.126382D+01 -0.120204D+02 -0.410793D+01
         3        18.0314     -9.9998     81.7656     29.9324
 Total R(velocity) tensor for State=          3
                 1             2             3 
      1   0.180314D+02  0.563327D+03  0.162835D+03
      2  -0.143298D+02 -0.999975D+01  0.417936D+02
      3  -0.821177D+01  0.142078D+03  0.817656D+02
         4        11.5142    225.1121   -202.6095     11.3390
 Total R(velocity) tensor for State=          4
                 1             2             3 
      1   0.115142D+02 -0.600250D+03 -0.188455D+03
      2  -0.214856D+01  0.225112D+03  0.714771D+02
      3  -0.530199D+02 -0.570140D+03 -0.202609D+03
         5         5.0234    180.6645   -176.2073      3.1602
 Total R(velocity) tensor for State=          5
                 1             2             3 
      1   0.502338D+01 -0.137390D+02 -0.476383D+01
      2  -0.196766D+01  0.180665D+03  0.597460D+02
      3  -0.113885D+02 -0.535182D+03 -0.176207D+03
         6        -9.9979   -307.7054    269.4453    -16.0860
 Total R(velocity) tensor for State=          6
                 1             2             3 
      1  -0.999794D+01  0.217751D+03  0.718837D+02
      2  -0.537416D+02 -0.307705D+03 -0.991233D+02
      3   0.427827D+02  0.825050D+03  0.269445D+03
         7        -0.5849     -0.6645      0.1667     -0.3609
 Total R(velocity) tensor for State=          7
                 1             2             3 
      1  -0.584941D+00  0.172522D+00  0.129078D+00
      2  -0.156209D+00 -0.664474D+00 -0.315048D+00
      3   0.291873D+00  0.383705D+00  0.166683D+00
         8        -0.7883     -1.4201     -0.7011     -0.9698
 Total R(velocity) tensor for State=          8
                 1             2             3 
      1  -0.788253D+00  0.164298D+00 -0.593554D+00
      2   0.187089D+00 -0.142005D+01 -0.269750D+00
      3  -0.727558D+00 -0.363937D+00 -0.701148D+00
         9         0.1044      0.1656     -0.1007      0.0564
 Total R(velocity) tensor for State=          9
                 1             2             3 
      1   0.104419D+00  0.879039D+00  0.526973D-01
      2  -0.815892D-01  0.165558D+00  0.689797D-01
      3   0.225638D+00  0.239049D+00 -0.100706D+00
        10         0.1183     -0.2527      0.5908      0.1522
 Total R(velocity) tensor for State=         10
                 1             2             3 
      1   0.118318D+00  0.230161D+00  0.698595D-01
      2  -0.676991D-01 -0.252678D+00 -0.960873D-01
      3   0.165635D+00  0.138518D+01  0.590823D+00
        11        -0.0070     -1.5114     -0.2316     -0.5833
 Total R(velocity) tensor for State=         11
                 1             2             3 
      1  -0.700226D-02  0.358341D+00  0.230178D+00
      2  -0.750927D-01 -0.151143D+01 -0.479642D+00
      3   0.218860D-01 -0.233946D+00 -0.231564D+00
        12        -0.8360      1.4678     -2.3346     -0.5676
 Total R(velocity) tensor for State=         12
                 1             2             3 
      1  -0.836028D+00  0.989164D+01  0.286147D+01
      2   0.103744D+01  0.146778D+01  0.975738D+00
      3  -0.402551D+00 -0.650795D+01 -0.233464D+01
        13        -0.2198     -0.4314      0.0986     -0.1842
 Total R(velocity) tensor for State=         13
                 1             2             3 
      1  -0.219815D+00  0.318389D-01  0.107584D+00
      2  -0.118561D+00 -0.431351D+00  0.177586D-01
      3  -0.226140D+00 -0.101938D+00  0.985868D-01
        14       -23.2192     -0.0390     12.4509     -3.6024
 Total R(velocity) tensor for State=         14
                 1             2             3 
      1  -0.232192D+02 -0.380948D+02 -0.843833D+01
      2   0.622515D+01 -0.389555D-01 -0.192467D+01
      3  -0.293233D+02  0.847156D+01  0.124509D+02
        15        -0.0120     -1.3248      0.7646     -0.1907
 Total R(velocity) tensor for State=         15
                 1             2             3 
      1  -0.120357D-01  0.298441D+00  0.112780D+00
      2  -0.458902D+00 -0.132476D+01  0.718317D-02
      3  -0.914069D-02  0.223568D+01  0.764550D+00
        16        -3.5972     -1.5245      0.2496     -1.6240
 Total R(velocity) tensor for State=         16
                 1             2             3 
      1  -0.359725D+01 -0.631606D+01 -0.195402D+01
      2  -0.398328D+00 -0.152448D+01 -0.526432D+00
      3   0.639955D+00  0.862868D+00  0.249631D+00
        17        -1.5624     -0.6864     -0.4490     -0.8993
 Total R(velocity) tensor for State=         17
                 1             2             3 
      1  -0.156241D+01  0.570708D+00 -0.552625D-01
      2   0.362335D+00 -0.686376D+00 -0.172790D+00
      3  -0.905910D+00 -0.913791D+00 -0.449033D+00
        18         5.9296     -2.2743      2.0209      1.8921
 Total R(velocity) tensor for State=         18
                 1             2             3 
      1   0.592962D+01  0.380614D+01 -0.539292D+01
      2  -0.868397D+01 -0.227429D+01  0.906805D+01
      3   0.286785D+01  0.148961D+02  0.202093D+01
        19         0.9656      1.7952     -0.6422      0.7062
 Total R(velocity) tensor for State=         19
                 1             2             3 
      1   0.965566D+00  0.187893D+02  0.585772D+01
      2  -0.506019D+01  0.179518D+01  0.465406D+01
      3  -0.136871D+01 -0.490594D+01 -0.642163D+00
        20         8.1030     -5.5021     -2.0406      0.1868
 Total R(velocity) tensor for State=         20
                 1             2             3 
      1   0.810299D+01  0.236587D+00 -0.699339D+01
      2  -0.179600D+02 -0.550211D+01  0.137604D+02
      3   0.435176D+01  0.503342D+01 -0.204059D+01
 1/2[<0|r|b>*<b|rxdel|0> + (<0|rxdel|b>*<b|r|0>)*]
 Rotatory Strengths (R) in cgs (10**-40 erg-esu-cm/Gauss)
       state          XX          YY          ZZ     R(length)     R(au)
         1       524.1450   -103.2944   -360.2255     20.2084      0.0429
         2       652.4507    382.3223  -1078.0778    -14.4349     -0.0306
         3     26815.4495  -4784.1548 -21375.8389    218.4853      0.4634
         4    -24304.7901  17076.2369   6680.5567   -182.6655     -0.3875
         5       363.5472   1007.7473  -1334.6522     12.2141      0.0259
         6      2209.9511   9012.2198 -10725.4041    165.5889      0.3512
         7         0.1942      1.5475     -3.2856     -0.5146     -0.0011
         8        -7.5266      1.6617      2.8798     -0.9950     -0.0021
         9         7.8717      0.9101     -7.6976      0.3614      0.0008
        10        16.0754     -2.1457    -28.8658     -4.9787     -0.0106
        11         3.2641      0.0970     -3.1646      0.0655      0.0001
        12       -84.8813     43.8690     37.5815     -1.1436     -0.0024
        13         4.4513      2.2968     -3.8905      0.9525      0.0020
        14      1439.4417    603.1506  -2130.5837    -29.3305     -0.0622
        15       324.1314     -6.8936   -233.0683     28.0565      0.0595
        16        22.8287    135.6762   -232.8037    -24.7663     -0.0525
        17      -144.4986    108.3323    -35.0510    -23.7391     -0.0504
        18      7939.4110   -453.5928  -7194.1400     97.2261      0.2062
        19      1447.7564     27.4357  -1461.0815      4.7035      0.0100
        20     13226.4290    -86.3019 -13349.2836    -69.7188     -0.1479
  1/2[<0|del|b>*<b|r|0> + (<0|r|b>*<b|del|0>)*] (Au)
       state          X           Y           Z        Dip. S.   Osc.(frdel)
         1        -0.0234     -0.0003     -0.0014      0.0252      0.0168
         2        -0.0021     -0.0037     -0.0373      0.0431      0.0287
         3        -1.0483     -0.0153     -0.1011      1.1646      0.7764
         4        -0.1154     -0.0855     -0.8184      1.0193      0.6795
         5        -0.0002     -0.0109     -0.0985      0.1096      0.0731
         6        -0.0010     -0.0680     -0.6233      0.6923      0.4615
         7         0.0000      0.0000     -0.0001      0.0001      0.0001
         8        -0.0001      0.0000     -0.0001      0.0002      0.0001
         9        -0.0001      0.0000     -0.0002      0.0003      0.0002
        10        -0.0001      0.0000     -0.0007      0.0007      0.0005
        11        -0.0003      0.0000      0.0000      0.0003      0.0002
        12        -0.0005     -0.0002     -0.0023      0.0030      0.0020
        13         0.0000      0.0000     -0.0001      0.0001      0.0001
        14        -0.0053     -0.0085     -0.0569      0.0708      0.0472
        15        -0.0041     -0.0004     -0.0031      0.0075      0.0050
        16         0.0000     -0.0013     -0.0096      0.0110      0.0073
        17        -0.0003     -0.0007     -0.0062      0.0072      0.0048
        18        -0.1137     -0.0107     -0.0848      0.2092      0.1395
        19        -0.0145     -0.0028     -0.0228      0.0400      0.0267
        20        -0.1460     -0.0239     -0.1945      0.3644      0.2429
 Ground to excited state transition densities written to RWF  633

 Excitation energies and oscillator strengths:
 
 Excited state symmetry could not be determined.
 Excited State   1:      Singlet-?Sym    2.1586 eV  574.37 nm  f=0.0195  <S**2>=0.000
     207 -> 209        -0.30192
     207 -> 210        -0.28653
     208 -> 209         0.40256
     208 -> 210        -0.40142
 This state for optimization and/or second-order correction.
 Total Energy, E(TD-HF/TD-KS) =  -2456.05122409    
 Copying the excited state density for this state as the 1-particle RhoCI density.
 
 Excited state symmetry could not be determined.
 Excited State   2:      Singlet-?Sym    2.3124 eV  536.17 nm  f=0.0313  <S**2>=0.000
     207 -> 209         0.31245
     207 -> 210        -0.30267
     208 -> 209         0.40205
     208 -> 210         0.38363
 
 Excited state symmetry could not be determined.
 Excited State   3:      Singlet-?Sym    3.1242 eV  396.85 nm  f=0.8157  <S**2>=0.000
     199 -> 209         0.20510
     199 -> 210        -0.16987
     207 -> 209         0.25567
     207 -> 210         0.39520
     208 -> 209         0.27434
     208 -> 210        -0.17879
     208 -> 211        -0.30546
 
 Excited state symmetry could not be determined.
 Excited State   4:      Singlet-?Sym    3.2043 eV  386.92 nm  f=0.7068  <S**2>=0.000
     199 -> 210        -0.18396
     207 -> 209         0.40137
     207 -> 210        -0.11725
     208 -> 209        -0.11707
     208 -> 210        -0.30219
     208 -> 211         0.41401
 
 Excited state symmetry could not be determined.
 Excited State   5:      Singlet-?Sym    3.3101 eV  374.56 nm  f=0.0764  <S**2>=0.000
     203 -> 209         0.48517
     203 -> 210        -0.43137
     207 -> 210        -0.10818
 
 Excited state symmetry could not be determined.
 Excited State   6:      Singlet-?Sym    3.3481 eV  370.31 nm  f=0.4822  <S**2>=0.000
     199 -> 209         0.19897
     203 -> 209         0.11739
     203 -> 210        -0.12682
     207 -> 209        -0.18892
     207 -> 210         0.29982
     208 -> 209         0.21572
     208 -> 210         0.16834
     208 -> 211         0.45883
 
 Excited state symmetry could not be determined.
 Excited State   7:      Singlet-?Sym    3.3815 eV  366.65 nm  f=0.0001  <S**2>=0.000
     204 -> 209         0.34321
     206 -> 209         0.60148
 
 Excited state symmetry could not be determined.
 Excited State   8:      Singlet-?Sym    3.4040 eV  364.23 nm  f=0.0001  <S**2>=0.000
     204 -> 210        -0.28233
     206 -> 210         0.62826
 
 Excited state symmetry could not be determined.
 Excited State   9:      Singlet-?Sym    3.4177 eV  362.77 nm  f=0.0002  <S**2>=0.000
     205 -> 210         0.68840
 
 Excited state symmetry could not be determined.
 Excited State  10:      Singlet-?Sym    3.4795 eV  356.33 nm  f=0.0007  <S**2>=0.000
     205 -> 209         0.69753
 
 Excited state symmetry could not be determined.
 Excited State  11:      Singlet-?Sym    3.4850 eV  355.76 nm  f=0.0002  <S**2>=0.000
     203 -> 209         0.10336
     204 -> 209        -0.58827
     206 -> 209         0.36226
 
 Excited state symmetry could not be determined.
 Excited State  12:      Singlet-?Sym    3.5093 eV  353.30 nm  f=0.0020  <S**2>=0.000
     203 -> 209         0.46105
     203 -> 210         0.50480
     204 -> 210         0.10272
 
 Excited state symmetry could not be determined.
 Excited State  13:      Singlet-?Sym    3.5287 eV  351.36 nm  f=0.0002  <S**2>=0.000
     203 -> 210        -0.13092
     204 -> 210         0.62870
     206 -> 210         0.28795
 
 Excited state symmetry could not be determined.
 Excited State  14:      Singlet-?Sym    3.5317 eV  351.06 nm  f=0.0490  <S**2>=0.000
     199 -> 210         0.24566
     207 -> 211        -0.63670
 
 Excited state symmetry could not be determined.
 Excited State  15:      Singlet-?Sym    3.5410 eV  350.14 nm  f=0.0053  <S**2>=0.000
     200 -> 209        -0.52550
     201 -> 209         0.46082
 
 Excited state symmetry could not be determined.
 Excited State  16:      Singlet-?Sym    3.5627 eV  348.01 nm  f=0.0068  <S**2>=0.000
     202 -> 209         0.19680
     202 -> 210         0.66094
 
 Excited state symmetry could not be determined.
 Excited State  17:      Singlet-?Sym    3.5708 eV  347.21 nm  f=0.0047  <S**2>=0.000
     200 -> 210         0.43978
     201 -> 210         0.52986
 
 Excited state symmetry could not be determined.
 Excited State  18:      Singlet-?Sym    3.5924 eV  345.13 nm  f=0.1457  <S**2>=0.000
     199 -> 209        -0.26744
     199 -> 210        -0.11314
     200 -> 209        -0.13681
     201 -> 209        -0.13430
     202 -> 209         0.56723
     202 -> 210        -0.16731
     207 -> 210         0.11303
 
 Excited state symmetry could not be determined.
 Excited State  19:      Singlet-?Sym    3.5989 eV  344.51 nm  f=0.0274  <S**2>=0.000
     199 -> 209         0.13791
     200 -> 209         0.40618
     201 -> 209         0.46886
     202 -> 209         0.26760
 
 Excited state symmetry could not be determined.
 Excited State  20:      Singlet-?Sym    3.6091 eV  343.53 nm  f=0.2516  <S**2>=0.000
     199 -> 209         0.54404
     199 -> 210         0.16139
     200 -> 209        -0.17051
     201 -> 209        -0.20144
     202 -> 209         0.24820
     207 -> 210        -0.14417
     208 -> 209        -0.10532
 SavETr:  write IOETrn=   770 NScale= 10 NData=  16 NLR=1 LETran=     370.
 Leave Link  914 at Thu Apr 30 14:55:57 2015, MaxMem= 8053063680 cpu:  175987.9
 (Enter /usr/local/apps/g09/l601.exe)
 Copying SCF densities to generalized density rwf, IOpCl= 0 IROHF=0.

 **********************************************************************

            Population analysis using the SCF density.

 **********************************************************************

 Alpha  occ. eigenvalues --  -19.18961 -19.13331 -14.36583 -14.36501 -14.30143
 Alpha  occ. eigenvalues --  -14.30080 -10.31753 -10.23127 -10.22836 -10.22828
 Alpha  occ. eigenvalues --  -10.22792 -10.21131 -10.20945 -10.20860 -10.20829
 Alpha  occ. eigenvalues --  -10.20814 -10.20530 -10.20339 -10.20090 -10.20090
 Alpha  occ. eigenvalues --  -10.20085 -10.19761 -10.19548 -10.19356 -10.19348
 Alpha  occ. eigenvalues --  -10.18935 -10.18929 -10.18925 -10.18903 -10.18896
 Alpha  occ. eigenvalues --  -10.18890 -10.18766 -10.18752 -10.18736 -10.18709
 Alpha  occ. eigenvalues --  -10.18644 -10.18611 -10.18587 -10.18536 -10.18518
 Alpha  occ. eigenvalues --  -10.18507 -10.17457 -10.17440 -10.17420 -10.17244
 Alpha  occ. eigenvalues --  -10.17242 -10.17229 -10.17209 -10.17203 -10.17202
 Alpha  occ. eigenvalues --  -10.17188 -10.17111 -10.17070 -10.17046 -10.16844
 Alpha  occ. eigenvalues --  -10.16841 -10.16838 -10.16818 -10.16801 -10.16801
 Alpha  occ. eigenvalues --   -1.10342  -1.01113  -0.98328  -0.98172  -0.93578
 Alpha  occ. eigenvalues --   -0.93293  -0.87193  -0.86337  -0.86109  -0.86007
[...]
 Alpha virt. eigenvalues --    0.51965   0.52167   0.52430   0.52471   0.52665
 Alpha virt. eigenvalues --    0.52761   0.53238   0.53679   0.54141   0.54589
 Alpha virt. eigenvalues --    0.54747   0.55286   0.55378   0.55547   0.55631
 Alpha virt. eigenvalues --    0.55780   0.55864   0.56131   0.56312   0.56603
 Alpha virt. eigenvalues --    0.56674   0.56718   0.56757   0.57068   0.57579
 Alpha virt. eigenvalues --    0.58252   0.58455   0.58784   0.58842   0.59171
 Alpha virt. eigenvalues --    0.59335   0.59560   0.59820   0.59902   0.60263
 Alpha virt. eigenvalues --    0.60383   0.60474   0.60612   0.61154   0.61249
 Alpha virt. eigenvalues --    0.61432   0.61569   0.61690   0.61818   0.61911
 Alpha virt. eigenvalues --    0.62087   0.62344   0.62396   0.62530   0.62619
 Alpha virt. eigenvalues --    0.62848   0.63084   0.63400   0.63527   0.63682
 Alpha virt. eigenvalues --    0.63829   0.63958   0.64548   0.64609   0.65072
 Alpha virt. eigenvalues --    0.65445   0.66380   0.66644   0.67298   0.67763
 Alpha virt. eigenvalues --    0.68452   0.68801   0.69218   0.69745   0.70011
 Alpha virt. eigenvalues --    0.70086   0.70359   0.70554   0.70900   0.71061
 Alpha virt. eigenvalues --    0.71509   0.71769   0.72029   0.72303   0.72590
 Alpha virt. eigenvalues --    0.73241   0.73568   0.73643   0.73893   0.74157
 Alpha virt. eigenvalues --    0.74565   0.74879   0.75103   0.75318   0.76216
 Alpha virt. eigenvalues --    0.76544   0.76763   0.77115   0.77528   0.77823
 Alpha virt. eigenvalues --    0.78292   0.78345   0.78477   0.78566   0.78593
 Alpha virt. eigenvalues --    0.78969   0.79212   0.79273   0.79486   0.80365
 Alpha virt. eigenvalues --    0.80793   0.80873   0.81717   0.82105   0.82472
 Alpha virt. eigenvalues --    0.82843   0.83255   0.83998   0.84068   0.84225
 Alpha virt. eigenvalues --    0.84452   0.84546   0.84761   0.84910   0.85050
 Alpha virt. eigenvalues --    0.85185   0.85193   0.85383   0.85513   0.85883
 Alpha virt. eigenvalues --    0.86074   0.86280   0.86394   0.86777   0.87004
 Alpha virt. eigenvalues --    0.87206   0.87451   0.87862   0.87957   0.88167
 Alpha virt. eigenvalues --    0.88303   0.88328   0.88492   0.89076   0.89492
 Alpha virt. eigenvalues --    0.89767   0.89964   0.90023   0.90711   0.91042
 Alpha virt. eigenvalues --    0.91063   0.91217   0.91646   0.91751   0.92549
 Alpha virt. eigenvalues --    0.92767   0.92852   0.92859   0.92900   0.92909
 Alpha virt. eigenvalues --    0.93166   0.93657   0.93805   0.93999   0.94195
 Alpha virt. eigenvalues --    0.95309   0.95361   0.95753   0.95977   0.96104
 Alpha virt. eigenvalues --    0.96192   0.96338   0.96630   0.96957   0.97272
 Alpha virt. eigenvalues --    0.97656   0.97716   0.98535   0.98628   0.99019
 Alpha virt. eigenvalues --    0.99358   0.99991   1.00606   1.00691   1.01517
 Alpha virt. eigenvalues --    1.01892   1.01951   1.02074   1.02582   1.02720
 Alpha virt. eigenvalues --    1.02996   1.03071   1.03313   1.03830   1.04210
 Alpha virt. eigenvalues --    1.05183   1.06052   1.06210   1.07353   1.08244
 Alpha virt. eigenvalues --    1.09101   1.10332   1.10862   1.11044   1.11534
 Alpha virt. eigenvalues --    1.11629   1.11858   1.12536   1.14058   1.14596
 Alpha virt. eigenvalues --    1.14832   1.15365   1.15550   1.15889   1.16549
 Alpha virt. eigenvalues --    1.17370   1.18143   1.19085   1.19514   1.19520
 Alpha virt. eigenvalues --    1.19680   1.19942   1.20448   1.20706   1.21211
 Alpha virt. eigenvalues --    1.21345   1.22159   1.22889   1.23458   1.23728
 Alpha virt. eigenvalues --    1.24000   1.24095   1.24204   1.24818   1.25342
 Alpha virt. eigenvalues --    1.25439   1.25788   1.25912   1.26433   1.26835
 Alpha virt. eigenvalues --    1.27380   1.28291   1.28585   1.28686   1.29032
 Alpha virt. eigenvalues --    1.29208   1.29702   1.30042   1.30709   1.31159
 Alpha virt. eigenvalues --    1.32220   1.33487   1.34321   1.35441   1.36021
 Alpha virt. eigenvalues --    1.37114   1.37691   1.38048   1.38123   1.38606
 Alpha virt. eigenvalues --    1.38798   1.39011   1.39330   1.39616   1.39840
 Alpha virt. eigenvalues --    1.40079   1.40164   1.40543   1.40740   1.40850
 Alpha virt. eigenvalues --    1.40940   1.40974   1.41168   1.41587   1.41750
 Alpha virt. eigenvalues --    1.42944   1.43025   1.43586   1.43770   1.44028
 Alpha virt. eigenvalues --    1.44471   1.45373   1.45866   1.47061   1.47287
 Alpha virt. eigenvalues --    1.47673   1.49222   1.50145   1.50222   1.50252
 Alpha virt. eigenvalues --    1.50335   1.50596   1.51472   1.51593   1.52089
 Alpha virt. eigenvalues --    1.52201   1.52470   1.52534   1.52701   1.54150
 Alpha virt. eigenvalues --    1.55290   1.55583   1.56009   1.57637   1.58057
 Alpha virt. eigenvalues --    1.58346   1.59490   1.60666   1.60901   1.63207
 Alpha virt. eigenvalues --    1.64713   1.65593   1.66503   1.68053   1.68295
 Alpha virt. eigenvalues --    1.68694   1.69059   1.69156   1.69560   1.69806
 Alpha virt. eigenvalues --    1.71143   1.71447   1.72699   1.74271   1.75848
 Alpha virt. eigenvalues --    1.76700   1.77313   1.77465   1.77622   1.78028
 Alpha virt. eigenvalues --    1.78583   1.78957   1.79314   1.79566   1.79788
 Alpha virt. eigenvalues --    1.80132   1.80452   1.80713   1.80978   1.81467
 Alpha virt. eigenvalues --    1.81641   1.81806   1.82041   1.82254   1.82774
 Alpha virt. eigenvalues --    1.84102   1.84976   1.85469   1.86196   1.86390
 Alpha virt. eigenvalues --    1.86438   1.86833   1.86888   1.87176   1.87757
 Alpha virt. eigenvalues --    1.88560   1.89130   1.89314   1.89423   1.89641
 Alpha virt. eigenvalues --    1.89768   1.89817   1.89845   1.89995   1.90442
 Alpha virt. eigenvalues --    1.90650   1.90754   1.90882   1.91077   1.91182
 Alpha virt. eigenvalues --    1.91348   1.91745   1.92084   1.92172   1.92327
 Alpha virt. eigenvalues --    1.92938   1.93175   1.93750   1.93999   1.94351
 Alpha virt. eigenvalues --    1.95069   1.95592   1.96106   1.97044   1.97386
 Alpha virt. eigenvalues --    1.97631   1.98492   1.99082   1.99636   1.99805
 Alpha virt. eigenvalues --    2.00340   2.00876   2.02229   2.03018   2.03476
 Alpha virt. eigenvalues --    2.03991   2.04354   2.04586   2.04895   2.04929
 Alpha virt. eigenvalues --    2.05216   2.05793   2.06457   2.06622   2.06743
 Alpha virt. eigenvalues --    2.08247   2.10144   2.10749   2.11071   2.11168
 Alpha virt. eigenvalues --    2.12013   2.12442   2.13049   2.13955   2.15154
 Alpha virt. eigenvalues --    2.15216   2.15464   2.15687   2.15824   2.16253
 Alpha virt. eigenvalues --    2.16506   2.16635   2.16919   2.17111   2.17844
 Alpha virt. eigenvalues --    2.18656   2.18936   2.19166   2.20528   2.20846
 Alpha virt. eigenvalues --    2.20881   2.21464   2.21676   2.22090   2.22538
 Alpha virt. eigenvalues --    2.22973   2.23329   2.23624   2.23710   2.24404
 Alpha virt. eigenvalues --    2.25076   2.25275   2.25705   2.26263   2.26670
 Alpha virt. eigenvalues --    2.26953   2.27940   2.28071   2.28318   2.28789
 Alpha virt. eigenvalues --    2.29526   2.30155   2.30286   2.30698   2.30842
 Alpha virt. eigenvalues --    2.31140   2.31354   2.31463   2.31926   2.32015
 Alpha virt. eigenvalues --    2.32851   2.33062   2.33489   2.33774   2.34670
 Alpha virt. eigenvalues --    2.35103   2.35403   2.35522   2.35753   2.36411
 Alpha virt. eigenvalues --    2.37133   2.37276   2.37392   2.37552   2.38003
 Alpha virt. eigenvalues --    2.38120   2.38406   2.38619   2.38879   2.39311
 Alpha virt. eigenvalues --    2.39820   2.41059   2.41379   2.41547   2.42310
 Alpha virt. eigenvalues --    2.42633   2.43208   2.43582   2.44305   2.44399
 Alpha virt. eigenvalues --    2.44734   2.45442   2.46228   2.47011   2.47479
 Alpha virt. eigenvalues --    2.47860   2.49119   2.50075   2.50897   2.51244
 Alpha virt. eigenvalues --    2.52326   2.53121   2.54764   2.55472   2.57389
 Alpha virt. eigenvalues --    2.58258   2.58421   2.59012   2.60107   2.60572
 Alpha virt. eigenvalues --    2.60786   2.61349   2.61818   2.61954   2.62086
 Alpha virt. eigenvalues --    2.63778   2.64636   2.65707   2.66452   2.68382
 Alpha virt. eigenvalues --    2.68701   2.69005   2.69229   2.69361   2.69758
 Alpha virt. eigenvalues --    2.70089   2.70585   2.70692   2.70818   2.71420
 Alpha virt. eigenvalues --    2.75146   2.76366   2.76806   2.77997   2.78881
 Alpha virt. eigenvalues --    2.79578   2.80161   2.80767   2.81719   2.82426
 Alpha virt. eigenvalues --    2.83059   2.83337   2.83735   2.83783   2.83819
 Alpha virt. eigenvalues --    2.84464   2.85054   2.86223   2.86362   2.86532
 Alpha virt. eigenvalues --    2.86641   2.88173   2.88712   2.90911   2.91257
 Alpha virt. eigenvalues --    2.91938   2.92400   2.92776   2.94185   2.94899
 Alpha virt. eigenvalues --    2.95648   2.97503   2.98512   2.99794   3.02317
 Alpha virt. eigenvalues --    3.02702   3.05909   3.06141   3.06767   3.06796
 Alpha virt. eigenvalues --    3.08508   3.09471   3.14356   3.14433   3.14506
 Alpha virt. eigenvalues --    3.15003   3.16165   3.18026   3.20128   3.29683
 Alpha virt. eigenvalues --    3.34308   3.34986   3.36907   3.39241   3.44103
 Alpha virt. eigenvalues --    3.44243   3.44630   3.45157
          Condensed to atoms (all electrons):
 Mulliken atomic charges:
              1
     1  O   -0.587613
     2  O   -0.429662
     3  N   -0.586398
     4  N   -0.584542
     5  N   -0.703899
     6  N   -0.702901
     7  C    0.493191
     8  C    0.068484
     9  C   -0.160595
    10  C   -0.261778
    11  C   -0.264065
    12  C   -0.267295
    13  C   -0.164907
    14  C    0.029547
    15  C   -0.126948
    16  C   -0.124781
    17  C   -0.126784
    18  C   -0.161262
    19  C   -0.163018
    20  C   -0.263442
    21  C   -0.261695
    22  C   -0.259417
    23  C   -0.041241
    24  C   -0.056372
    25  C   -0.059195
    26  C   -0.057302
    27  C    0.312883
    28  C    0.321425
    29  C    0.319493
    30  C    0.321073
    31  C   -0.192237
    32  C   -0.191074
    33  C   -0.191116
    34  C   -0.191941
    35  C    0.250097
    36  C    0.254782
    37  C    0.255263
    38  C    0.255685
    39  C   -0.184909
    40  C   -0.184970
    41  C   -0.184429
    42  C   -0.184403
    43  H    0.144806
    44  H    0.147138
    45  H    0.147228
    46  H    0.147835
    47  H    0.416766
    48  H    0.157012
    49  H    0.160170
    50  H    0.158576
    51  H    0.159038
    52  H    0.161076
    53  H    0.112619
    54  H    0.112459
    55  H    0.112508
    56  H    0.147832
    57  H    0.146992
    58  H    0.165109
    59  H    0.112485
    60  H    0.112464
    61  H    0.113049
    62  H    0.408008
    63  H    0.407877
    64  C   -0.532676
    65  H    0.155660
    66  H    0.156622
    67  H    0.164757
    68  C   -0.533764
    69  H    0.149874
    70  H    0.165867
    71  H    0.170229
    72  C   -0.533740
    73  H    0.150210
    74  H    0.169794
    75  H    0.165495
    76  C   -0.533360
    77  H    0.149699
    78  H    0.165226
    79  H    0.170091
    80  C   -0.534175
    81  H    0.150180
    82  H    0.170856
    83  H    0.165319
    84  C   -0.533772
    85  H    0.161505
    86  H    0.154640
    87  H    0.161185
    88  C   -0.533634
    89  H    0.149952
    90  H    0.165306
    91  H    0.170385
    92  C   -0.533736
    93  H    0.149959
    94  H    0.170157
    95  H    0.165420
    96  C   -0.532741
    97  H    0.157102
    98  H    0.155628
    99  H    0.164076
   100  C    0.210731
   101  C    0.184314
   102  C    0.185592
   103  C    0.184387
   104  C    0.185348
   105  C    0.211122
   106  C    0.184277
   107  C    0.186067
   108  C    0.211788
 Sum of Mulliken atomic charges =   0.00000
 Mulliken charges with hydrogens summed into heavy atoms:
              1
     1  O   -0.170847
     2  O   -0.429662
     3  N   -0.586398
     4  N   -0.584542
     5  N   -0.295892
     6  N   -0.295023
     7  C    0.493191
     8  C    0.068484
     9  C    0.004514
    10  C   -0.149294
    11  C   -0.151601
    12  C   -0.154246
    13  C   -0.017915
    14  C    0.029547
    15  C   -0.126948
    16  C   -0.124781
    17  C   -0.126784
    18  C   -0.013430
    19  C   -0.001942
    20  C   -0.150823
    21  C   -0.149236
    22  C   -0.146910
    23  C   -0.041241
    24  C   -0.056372
    25  C   -0.059195
    26  C   -0.057302
    27  C    0.312883
    28  C    0.321425
    29  C    0.319493
    30  C    0.321073
    31  C   -0.035224
    32  C   -0.030903
    33  C   -0.032539
    34  C   -0.032903
    35  C    0.250097
    36  C    0.254782
    37  C    0.255263
    38  C    0.255685
    39  C   -0.040103
    40  C   -0.037832
    41  C   -0.037201
    42  C   -0.036568
    64  C   -0.055637
    68  C   -0.047794
    72  C   -0.048241
    76  C   -0.048344
    80  C   -0.047821
    84  C   -0.056442
    88  C   -0.047991
    92  C   -0.048199
    96  C   -0.055934
   100  C    0.210731
   101  C    0.184314
   102  C    0.185592
   103  C    0.184387
   104  C    0.185348
   105  C    0.211122
   106  C    0.184277
   107  C    0.186067
   108  C    0.211788
 Sum of Mulliken charges with hydrogens summed into heavy atoms =   0.00000
 Electronic spatial extent (au):  <R**2>=        7067094.1824
 Charge=              0.0000 electrons
 Dipole moment (field-independent basis, Debye):
    X=             -1.9435    Y=              1.5486    Z=             -0.7932  Tot=              2.6085
 Quadrupole moment (field-independent basis, Debye-Ang):
   XX=           -454.2534   YY=           -201.4709   ZZ=           -379.3136
   XY=            -25.3233   XZ=           -110.6730   YZ=             28.7177
 Traceless Quadrupole moment (field-independent basis, Debye-Ang):
   XX=           -109.2408   YY=            143.5417   ZZ=            -34.3010
   XY=            -25.3233   XZ=           -110.6730   YZ=             28.7177
 Octapole moment (field-independent basis, Debye-Ang**2):
  XXX=         -38964.7149  YYY=         -37129.3885  ZZZ=         -40880.7896  XYY=          -9718.4798
  XXY=         -18099.5507  XXZ=         -19286.1571  XZZ=         -16212.4568  YZZ=         -14529.9817
  YYZ=          -9226.1207  XYZ=          -2356.5964
 Hexadecapole moment (field-independent basis, Debye-Ang**3):
 XXXX=       -2489785.2024 YYYY=       -3677723.6666 ZZZZ=       -3134474.8274 XXXY=       -1667663.4305
 XXXZ=       -1590876.8905 YYYX=       -1351892.9359 YYYZ=       -1508087.2472 ZZZX=       -1511283.3072
 ZZZY=       -1739870.7302 XXYY=       -1095740.8039 XXZZ=       -1172844.2458 YYZZ=       -1074325.6278
 XXYZ=        -765949.8870 YYXZ=        -436315.9376 ZZXY=        -623199.8915
 N-N= 8.015320976950D+03 E-N=-2.173508451358D+04  KE= 2.440222147822D+03
 Leave Link  601 at Thu Apr 30 14:56:14 2015, MaxMem= 8053063680 cpu:      28.5
 (Enter /usr/local/apps/g09/l9999.exe)
 1\1\GINC-N3L4-3\SP\RTD-B3LYP-FC\Gen\C54H48N4O2\JSHIGH\30-Apr-2015\0\\#
 p td(singlets,add=10) b3lyp/gen nosymm geom=check guess=read\\fb3mesco
 oh b3lypopt freq b3lypopt t2 td10b3lyp add10\\0,1\O,0,39.74640834,44.2
 6473791,46.45096926\O,0,40.44417125,42.48216598,45.26605996\N,0,33.160
 39626,44.9415645,41.09429693\N,0,33.15634699,46.18453793,37.21457948\N
 ,0,35.26412533,45.48146404,39.14574242\N,0,31.05269455,45.61920152,39.
 15503292\C,0,39.68851826,43.42716759,45.38275111\C,0,38.62765689,43.79
 530181,44.41065282\C,0,38.47362821,42.99863869,43.26808267\C,0,38.1716
 0622,48.14891156,34.73180598\C,0,28.21262195,48.39399037,34.77472861\C
 ,0,28.11958396,42.94070939,43.52918904\C,0,37.49520932,43.30412022,42.
 32749308\C,0,36.64588169,44.41061927,42.50475513\C,0,36.66402993,46.57
 272305,35.78688837\C,0,29.66261497,46.75100043,35.80806821\C,0,29.6463
 106,44.51827562,42.50486117\C,0,36.80875382,45.2020311,43.65477656\C,0
 ,37.78700882,44.90123865,44.59897478\C,0,38.14872729,45.86492884,34.00
 801354\C,0,28.15296118,46.12033682,34.0209923\C,0,28.17747765,45.20688
 281,44.30485965\C,0,35.59486878,44.74349393,41.49238306\C,0,35.5983999
 8,46.26027314,36.80419617\C,0,30.72056904,46.38959337,36.81626374\C,0,
 30.71382505,44.83973466,41.49233062\C,0,36.04953031,45.14364866,40.223
 49873\C,0,36.04251262,45.84178454,38.06809121\C,0,30.27101423,45.98824
 233,38.08416995\C,0,30.27037811,45.27862247,40.23414757\C,0,37.4117858
 ,45.30556838,39.800131\C,0,37.40653038,45.72048377,38.49455997\C,0,28.
 90781348,45.87743997,38.51685426\C,0,28.90727763,45.44740582,39.818373
 43\C,0,34.23858882,44.6405271,41.87635259\C,0,34.24783741,46.41232223,
 36.42570744\C,0,32.07439193,46.47379828,36.43084538\C,0,32.0631756,44.
 67849504,41.86786761\C,0,33.81307951,44.15619429,43.18810885\C,0,33.84
 705512,46.85883003,35.09373258\C,0,32.49253012,46.89796766,35.09736671
 \C,0,32.45884148,44.1858262,43.18343368\H,0,34.4650226,43.8295229,43.9
 853927\H,0,34.52119233,47.1043362,34.28490823\H,0,31.82912034,47.18242
 578,34.29234555\H,0,31.78214157,43.89723161,43.97562213\H,0,40.4704580
 8,43.92579231,47.00952817\H,0,38.27375881,45.13170101,40.42652753\H,0,
 38.26024669,45.93908277,37.86977823\H,0,28.05309379,46.10092036,37.895
 00056\H,0,28.05177307,45.25590848,40.44967993\H,0,37.90638724,45.52346
 431,45.47905729\H,0,38.52491533,45.07485747,33.36082992\H,0,27.7535620
 6,45.35442393,33.35865786\H,0,27.81722817,45.98637836,44.97402233\H,0,
 36.16446306,46.06403517,43.79959073\H,0,37.37342198,42.67739809,41.448
 99169\H,0,39.12611598,42.14136392,43.13837641\H,0,38.56644203,49.16042
 186,34.65592572\H,0,27.86024917,49.42152543,34.70716601\H,0,27.7141640
 2,41.93239892,43.58605353\H,0,34.24919485,45.48497841,39.15591342\H,0,
 32.06748469,45.60505376,39.14571464\C,0,39.72076616,47.47511562,32.845
 28211\H,0,40.30382715,46.58727701,32.57832631\H,0,40.41644453,48.24317
 443,33.2010494\H,0,39.26481244,47.85511034,31.92101065\C,0,36.67179555
 ,48.99702701,36.56975615\H,0,37.18953426,49.93608633,36.35099095\H,0,3
 6.82299906,48.76637653,37.63075654\H,0,35.59678705,49.16292344,36.4328
 6313\C,0,36.62500834,44.13976137,35.03260536\H,0,37.11028034,43.494460
 31,34.29380619\H,0,35.54368454,44.10364402,34.8560803\H,0,36.79731359,
 43.70593372,36.02467279\C,0,29.72642724,46.93128313,43.319837\H,0,29.2
 4577374,47.56933981,44.06791191\H,0,29.56983141,47.38796362,42.3354367
 7\H,0,30.80669946,46.9456169,43.50558753\C,0,29.60527274,42.11254985,4
 1.6696848\H,0,29.08117808,41.17414375,41.87572393\H,0,30.67981784,41.9
 3509957,41.7948575\H,0,29.44746145,42.36306062,40.6140997\C,0,26.55857
 617,43.60737112,45.41196233\H,0,26.89918772,43.81251039,46.43460636\H,
 0,26.25889309,42.555608,45.36489164\H,0,25.66197311,44.21768833,45.245
 0657\C,0,29.62133756,44.33044833,35.01430879\H,0,29.11138865,43.712022
 22,34.26914314\H,0,29.44105327,43.88764033,36.00101735\H,0,30.69988334
 ,44.26307158,34.83065513\C,0,29.74978205,49.16536792,36.61595925\H,0,2
 9.27489707,50.12769374,36.40106\H,0,30.83157656,49.28438967,36.4841549
 6\H,0,29.58430214,48.93592238,37.67517578\C,0,26.58850633,47.78485471,
 32.92852084\H,0,26.68939037,47.21195959,31.99999665\H,0,26.6111549,48.
 84969337,32.67371438\H,0,25.59133795,47.56797633,33.33499162\C,0,38.66
 977056,47.15553717,33.88336382\C,0,37.17766752,47.88332734,35.67979919
 \C,0,37.15459846,45.55405303,34.94285674\C,0,29.13598915,45.76178992,3
 4.94939557\C,0,29.19748553,48.08001173,35.71844723\C,0,27.673494,47.42
 980911,33.91904037\C,0,29.17258991,45.52460321,43.37605467\C,0,29.1153
 5738,43.21458735,42.58282555\C,0,27.63535794,43.92026627,44.39841634\\
 Version=EM64L-G09RevA.02\HF=-2456.1305523\RMSD=3.236e-09\PG=C01 [X(C54
 H48N4O2)]\\@


 LAW OF COMPENSATION:
      NO CALCULATION IS EVER A COMPLETE FAILURE; IT 
      CAN ALWAYS SERVE AS A BAD EXAMPLE.

                                           -- ANON
 Job cpu time:  2 days  1 hours 20 minutes  7.5 seconds.
 File lengths (MBytes):  RWF=   2328 Int=      0 D2E=      0 Chk=    675 Scr=      2
 Normal termination of Gaussian 09 at Thu Apr 30 14:56:43 2015.
