Title Card Required                                                     
SP        RB3LYP                                                      Gen                 
Number of atoms                            I               12
Info1-9                                    I   N=           9
          23          23           0           0           0         110
           1          18        -502
Charge                                     I                0
Multiplicity                               I                1
Number of electrons                        I               42
Number of alpha electrons                  I               21
Number of beta electrons                   I               21
Number of basis functions                  I               96
Number of independent functions            I               96
Number of point charges in /Mol/           I                0
Number of translation vectors              I                0
Atomic numbers                             I   N=          12
           6           6           6           6           6           6
           1           1           1           1           1           1
Nuclear charges                            R   N=          12
  6.00000000E+00  6.00000000E+00  6.00000000E+00  6.00000000E+00  6.00000000E+00
  6.00000000E+00  1.00000000E+00  1.00000000E+00  1.00000000E+00  1.00000000E+00
  1.00000000E+00  1.00000000E+00
Current cartesian coordinates              R   N=          36
  9.93140750E-01  4.28981620E+00  0.00000000E+00  3.62961106E+00  4.28981620E+00
  0.00000000E+00  4.94776685E+00  6.57213482E+00  0.00000000E+00  3.62939185E+00
  8.85588586E+00 -2.26578163E-03  9.93554600E-01  8.85573846E+00 -3.17096045E-03
 -3.24720240E-01  6.57256001E+00 -1.28879322E-03 -4.57531988E-02  2.49019787E+00
  8.50376760E-04  4.66803069E+00  2.48982749E+00  2.48498986E-03  7.02586088E+00
  6.57228600E+00  1.19808637E-03  4.66911917E+00  1.06551754E+01 -2.37727548E-03
 -4.60253193E-02  1.06552888E+01 -4.97186946E-03 -2.40267065E+00  6.57290583E+00
 -1.62894393E-03
Force Field                                I                0
Int Atom Types                             I   N=          12
           0           0           0           0           0           0
           0           0           0           0           0           0
MM charges                                 R   N=          12
  0.00000000E+00  0.00000000E+00  0.00000000E+00  0.00000000E+00  0.00000000E+00
  0.00000000E+00  0.00000000E+00  0.00000000E+00  0.00000000E+00  0.00000000E+00
  0.00000000E+00  0.00000000E+00
Integer atomic weights                     I   N=          12
          12          12          12          12          12          12
           1           1           1           1           1           1
Real atomic weights                        R   N=          12
  1.20000000E+01  1.20000000E+01  1.20000000E+01  1.20000000E+01  1.20000000E+01
  1.20000000E+01  1.00782504E+00  1.00782504E+00  1.00782504E+00  1.00782504E+00
  1.00782504E+00  1.00782504E+00
Atom fragment info                         I   N=          12
           0           0           0           0           0           0
           0           0           0           0           0           0
Atom residue num                           I   N=          12
           0           0           0           0           0           0
           0           0           0           0           0           0
Nuclear spins                              I   N=          12
           0           0           0           0           0           0
           1           1           1           1           1           1
Nuclear ZEff                               R   N=          12
 -3.60000000E+00 -3.60000000E+00 -3.60000000E+00 -3.60000000E+00 -3.60000000E+00
 -3.60000000E+00 -1.00000000E+00 -1.00000000E+00 -1.00000000E+00 -1.00000000E+00
 -1.00000000E+00 -1.00000000E+00
Nuclear QMom                               R   N=          12
  0.00000000E+00  0.00000000E+00  0.00000000E+00  0.00000000E+00  0.00000000E+00
  0.00000000E+00  0.00000000E+00  0.00000000E+00  0.00000000E+00  0.00000000E+00
  0.00000000E+00  0.00000000E+00
Nuclear GFac                               R   N=          12
  0.00000000E+00  0.00000000E+00  0.00000000E+00  0.00000000E+00  0.00000000E+00
  0.00000000E+00  2.79284600E+00  2.79284600E+00  2.79284600E+00  2.79284600E+00
  2.79284600E+00  2.79284600E+00
MicOpt                                     I   N=          12
          -1          -1          -1          -1          -1          -1
          -1          -1          -1          -1          -1          -1
Number of contracted shells                I               36
Number of primitive shells                 I               90
Pure/Cartesian d shells                    I                0
Pure/Cartesian f shells                    I                0
Highest angular momentum                   I                2
Largest degree of contraction              I                6
Shell types                                I   N=          36
           0          -1          -1          -2           0          -1
          -1          -2           0          -1          -1          -2
           0          -1          -1          -2           0          -1
          -1          -2           0          -1          -1          -2
           0           0           0           0           0           0
           0           0           0           0           0           0
Number of primitives per shell             I   N=          36
           6           3           1           1           6           3
           1           1           6           3           1           1
           6           3           1           1           6           3
           1           1           6           3           1           1
           3           1           3           1           3           1
           3           1           3           1           3           1
Shell to atom map                          I   N=          36
           1           1           1           1           2           2
           2           2           3           3           3           3
           4           4           4           4           5           5
           5           5           6           6           6           6
           7           7           8           8           9           9
          10          10          11          11          12          12
Primitive exponents                        R   N=          90
  3.04752488E+03  4.57369518E+02  1.03948685E+02  2.92101553E+01  9.28666296E+00
  3.16392696E+00  7.86827235E+00  1.88128854E+00  5.44249258E-01  1.68714478E-01
  8.00000000E-01  3.04752488E+03  4.57369518E+02  1.03948685E+02  2.92101553E+01
  9.28666296E+00  3.16392696E+00  7.86827235E+00  1.88128854E+00  5.44249258E-01
  1.68714478E-01  8.00000000E-01  3.04752488E+03  4.57369518E+02  1.03948685E+02
  2.92101553E+01  9.28666296E+00  3.16392696E+00  7.86827235E+00  1.88128854E+00
  5.44249258E-01  1.68714478E-01  8.00000000E-01  3.04752488E+03  4.57369518E+02
  1.03948685E+02  2.92101553E+01  9.28666296E+00  3.16392696E+00  7.86827235E+00
  1.88128854E+00  5.44249258E-01  1.68714478E-01  8.00000000E-01  3.04752488E+03
  4.57369518E+02  1.03948685E+02  2.92101553E+01  9.28666296E+00  3.16392696E+00
  7.86827235E+00  1.88128854E+00  5.44249258E-01  1.68714478E-01  8.00000000E-01
  3.04752488E+03  4.57369518E+02  1.03948685E+02  2.92101553E+01  9.28666296E+00
  3.16392696E+00  7.86827235E+00  1.88128854E+00  5.44249258E-01  1.68714478E-01
  8.00000000E-01  1.87311370E+01  2.82539436E+00  6.40121692E-01  1.61277759E-01
  1.87311370E+01  2.82539436E+00  6.40121692E-01  1.61277759E-01  1.87311370E+01
  2.82539436E+00  6.40121692E-01  1.61277759E-01  1.87311370E+01  2.82539436E+00
  6.40121692E-01  1.61277759E-01  1.87311370E+01  2.82539436E+00  6.40121692E-01
  1.61277759E-01  1.87311370E+01  2.82539436E+00  6.40121692E-01  1.61277759E-01
Contraction coefficients                   R   N=          90
  1.83473713E-03  1.40373228E-02  6.88426223E-02  2.32184443E-01  4.67941348E-01
  3.62311985E-01 -1.19332420E-01 -1.60854152E-01  1.14345644E+00  1.00000000E+00
  1.00000000E+00  1.83473713E-03  1.40373228E-02  6.88426223E-02  2.32184443E-01
  4.67941348E-01  3.62311985E-01 -1.19332420E-01 -1.60854152E-01  1.14345644E+00
  1.00000000E+00  1.00000000E+00  1.83473713E-03  1.40373228E-02  6.88426223E-02
  2.32184443E-01  4.67941348E-01  3.62311985E-01 -1.19332420E-01 -1.60854152E-01
  1.14345644E+00  1.00000000E+00  1.00000000E+00  1.83473713E-03  1.40373228E-02
  6.88426223E-02  2.32184443E-01  4.67941348E-01  3.62311985E-01 -1.19332420E-01
 -1.60854152E-01  1.14345644E+00  1.00000000E+00  1.00000000E+00  1.83473713E-03
  1.40373228E-02  6.88426223E-02  2.32184443E-01  4.67941348E-01  3.62311985E-01
 -1.19332420E-01 -1.60854152E-01  1.14345644E+00  1.00000000E+00  1.00000000E+00
  1.83473713E-03  1.40373228E-02  6.88426223E-02  2.32184443E-01  4.67941348E-01
  3.62311985E-01 -1.19332420E-01 -1.60854152E-01  1.14345644E+00  1.00000000E+00
  1.00000000E+00  3.34946043E-02  2.34726953E-01  8.13757326E-01  1.00000000E+00
  3.34946043E-02  2.34726953E-01  8.13757326E-01  1.00000000E+00  3.34946043E-02
  2.34726953E-01  8.13757326E-01  1.00000000E+00  3.34946043E-02  2.34726953E-01
  8.13757326E-01  1.00000000E+00  3.34946043E-02  2.34726953E-01  8.13757326E-01
  1.00000000E+00  3.34946043E-02  2.34726953E-01  8.13757326E-01  1.00000000E+00
P(S=P) Contraction coefficients            R   N=          90
  0.00000000E+00  0.00000000E+00  0.00000000E+00  0.00000000E+00  0.00000000E+00
  0.00000000E+00  6.89990666E-02  3.16423961E-01  7.44308291E-01  1.00000000E+00
  0.00000000E+00  0.00000000E+00  0.00000000E+00  0.00000000E+00  0.00000000E+00
  0.00000000E+00  0.00000000E+00  6.89990666E-02  3.16423961E-01  7.44308291E-01
  1.00000000E+00  0.00000000E+00  0.00000000E+00  0.00000000E+00  0.00000000E+00
  0.00000000E+00  0.00000000E+00  0.00000000E+00  6.89990666E-02  3.16423961E-01
  7.44308291E-01  1.00000000E+00  0.00000000E+00  0.00000000E+00  0.00000000E+00
  0.00000000E+00  0.00000000E+00  0.00000000E+00  0.00000000E+00  6.89990666E-02
  3.16423961E-01  7.44308291E-01  1.00000000E+00  0.00000000E+00  0.00000000E+00
  0.00000000E+00  0.00000000E+00  0.00000000E+00  0.00000000E+00  0.00000000E+00
  6.89990666E-02  3.16423961E-01  7.44308291E-01  1.00000000E+00  0.00000000E+00
  0.00000000E+00  0.00000000E+00  0.00000000E+00  0.00000000E+00  0.00000000E+00
  0.00000000E+00  6.89990666E-02  3.16423961E-01  7.44308291E-01  1.00000000E+00
  0.00000000E+00  0.00000000E+00  0.00000000E+00  0.00000000E+00  0.00000000E+00
  0.00000000E+00  0.00000000E+00  0.00000000E+00  0.00000000E+00  0.00000000E+00
  0.00000000E+00  0.00000000E+00  0.00000000E+00  0.00000000E+00  0.00000000E+00
  0.00000000E+00  0.00000000E+00  0.00000000E+00  0.00000000E+00  0.00000000E+00
  0.00000000E+00  0.00000000E+00  0.00000000E+00  0.00000000E+00  0.00000000E+00
Coordinates of each shell                  R   N=         108
  9.93140750E-01  4.28981620E+00  0.00000000E+00  9.93140750E-01  4.28981620E+00
  0.00000000E+00  9.93140750E-01  4.28981620E+00  0.00000000E+00  9.93140750E-01
  4.28981620E+00  0.00000000E+00  3.62961106E+00  4.28981620E+00  0.00000000E+00
  3.62961106E+00  4.28981620E+00  0.00000000E+00  3.62961106E+00  4.28981620E+00
  0.00000000E+00  3.62961106E+00  4.28981620E+00  0.00000000E+00  4.94776685E+00
  6.57213482E+00  0.00000000E+00  4.94776685E+00  6.57213482E+00  0.00000000E+00
  4.94776685E+00  6.57213482E+00  0.00000000E+00  4.94776685E+00  6.57213482E+00
  0.00000000E+00  3.62939185E+00  8.85588586E+00 -2.26578163E-03  3.62939185E+00
  8.85588586E+00 -2.26578163E-03  3.62939185E+00  8.85588586E+00 -2.26578163E-03
  3.62939185E+00  8.85588586E+00 -2.26578163E-03  9.93554600E-01  8.85573846E+00
 -3.17096045E-03  9.93554600E-01  8.85573846E+00 -3.17096045E-03  9.93554600E-01
  8.85573846E+00 -3.17096045E-03  9.93554600E-01  8.85573846E+00 -3.17096045E-03
 -3.24720240E-01  6.57256001E+00 -1.28879322E-03 -3.24720240E-01  6.57256001E+00
 -1.28879322E-03 -3.24720240E-01  6.57256001E+00 -1.28879322E-03 -3.24720240E-01
  6.57256001E+00 -1.28879322E-03 -4.57531988E-02  2.49019787E+00  8.50376760E-04
 -4.57531988E-02  2.49019787E+00  8.50376760E-04  4.66803069E+00  2.48982749E+00
  2.48498986E-03  4.66803069E+00  2.48982749E+00  2.48498986E-03  7.02586088E+00
  6.57228600E+00  1.19808637E-03  7.02586088E+00  6.57228600E+00  1.19808637E-03
  4.66911917E+00  1.06551754E+01 -2.37727548E-03  4.66911917E+00  1.06551754E+01
 -2.37727548E-03 -4.60253193E-02  1.06552888E+01 -4.97186946E-03 -4.60253193E-02
  1.06552888E+01 -4.97186946E-03 -2.40267065E+00  6.57290583E+00 -1.62894393E-03
 -2.40267065E+00  6.57290583E+00 -1.62894393E-03
Constraint Structure                       R   N=          36
  9.93140750E-01  4.28981620E+00  0.00000000E+00  3.62961106E+00  4.28981620E+00
  0.00000000E+00  4.94776685E+00  6.57213482E+00  0.00000000E+00  3.62939185E+00
  8.85588586E+00 -2.26578163E-03  9.93554600E-01  8.85573846E+00 -3.17096045E-03
 -3.24720240E-01  6.57256001E+00 -1.28879322E-03 -4.57531988E-02  2.49019787E+00
  8.50376760E-04  4.66803069E+00  2.48982749E+00  2.48498986E-03  7.02586088E+00
  6.57228600E+00  1.19808637E-03  4.66911917E+00  1.06551754E+01 -2.37727548E-03
 -4.60253193E-02  1.06552888E+01 -4.97186946E-03 -2.40267065E+00  6.57290583E+00
 -1.62894393E-03
Num ILSW                                   I              100
ILSW                                       I   N=         100
           0           0           0           0           2           0
           0           0           0           0         402          -1
           0           0           0           0           0           0
           0           0           0           0           0           0
           1           1           0           0           0           0
           0           0      100000           0          -1           0
           0           0           0           0           0           0
           0           0           0           1           0           0
           0           0           1           0           0           0
           0           0           4          40           0           0
           0           0           5           0           0           0
           0           0           0           0           0           0
           0           0           0           0           0           0
           0           0           0           0           0           0
           0           0           0           0           0           0
           0           0           0           0           0           0
           0           0           0           0
Num RLSW                                   I               40
RLSW                                       R   N=          40
  8.00000000E-01  7.20000000E-01  1.00000000E+00  8.10000000E-01  2.00000000E-01
  0.00000000E+00  0.00000000E+00  1.00000000E+00  0.00000000E+00  0.00000000E+00
  0.00000000E+00  0.00000000E+00  1.00000000E+00  0.00000000E+00  0.00000000E+00
  0.00000000E+00  0.00000000E+00  1.00000000E+00  0.00000000E+00  0.00000000E+00
  0.00000000E+00  0.00000000E+00  1.00000000E+00  0.00000000E+00  0.00000000E+00
  0.00000000E+00  0.00000000E+00  1.00000000E+00  0.00000000E+00  0.00000000E+00
  0.00000000E+00  0.00000000E+00  1.00000000E+00  0.00000000E+00  0.00000000E+00
  0.00000000E+00  0.00000000E+00  0.00000000E+00  1.00000000E+00  1.00000000E+00
MxBond                                     I                3
NBond                                      I   N=          12
           3           3           3           3           3           3
           1           1           1           1           1           1
IBond                                      I   N=          36
           2           6           7           1           3           8
           2           4           9           3           5          10
           4           6          11           1           5          12
           1           0           0           2           0           0
           3           0           0           4           0           0
           5           0           0           6           0           0
RBond                                      R   N=          36
  1.50000000E+00  1.50000000E+00  1.00000000E+00  1.50000000E+00  1.50000000E+00
  1.00000000E+00  1.50000000E+00  1.50000000E+00  1.00000000E+00  1.50000000E+00
  1.50000000E+00  1.00000000E+00  1.50000000E+00  1.50000000E+00  1.00000000E+00
  1.50000000E+00  1.50000000E+00  1.00000000E+00  1.00000000E+00  0.00000000E+00
  0.00000000E+00  1.00000000E+00  0.00000000E+00  0.00000000E+00  1.00000000E+00
  0.00000000E+00  0.00000000E+00  1.00000000E+00  0.00000000E+00  0.00000000E+00
  1.00000000E+00  0.00000000E+00  0.00000000E+00  1.00000000E+00  0.00000000E+00
  0.00000000E+00
Virial Ratio                               R      2.007012771608354E+00
SCF Energy                                 R     -2.322432087284967E+02
Total Energy                               R     -2.322432087284967E+02
RMS Density                                R      5.902393115516845E-09
External E-field                           R   N=          35
  0.00000000E+00  0.00000000E+00  0.00000000E+00  0.00000000E+00  0.00000000E+00
  0.00000000E+00  0.00000000E+00  0.00000000E+00  0.00000000E+00  0.00000000E+00
  0.00000000E+00  0.00000000E+00  0.00000000E+00  0.00000000E+00  0.00000000E+00
  0.00000000E+00  0.00000000E+00  0.00000000E+00  0.00000000E+00  0.00000000E+00
  0.00000000E+00  0.00000000E+00  0.00000000E+00  0.00000000E+00  0.00000000E+00
  0.00000000E+00  0.00000000E+00  0.00000000E+00  0.00000000E+00  0.00000000E+00
  0.00000000E+00  0.00000000E+00  0.00000000E+00  0.00000000E+00  0.00000000E+00
IOpCl                                      I                0
IROHF                                      I                0
Alpha Orbital Energies                     R   N=          96
 -1.01830153E+01 -1.01828137E+01 -1.01828085E+01 -1.01823588E+01 -1.01823506E+01
 -1.01821490E+01 -8.47120588E-01 -7.39464070E-01 -7.39428850E-01 -5.96051019E-01
 -5.96010129E-01 -5.16636130E-01 -4.55354893E-01 -4.39052702E-01 -4.15887427E-01
 -4.15871489E-01 -3.60358981E-01 -3.39296495E-01 -3.39223228E-01 -2.46894105E-01
 -2.46856498E-01  3.70981406E-03  3.76156297E-03  8.63590272E-02  1.41087966E-01
  1.41110971E-01  1.64650470E-01  1.79900863E-01  1.79919059E-01  1.86894658E-01
  3.02281937E-01  3.02336867E-01  3.20287195E-01  3.20371849E-01  4.74368600E-01
  5.26847202E-01  5.49397014E-01  5.53032478E-01  5.65571182E-01  5.99395667E-01
  6.01496978E-01  6.01531505E-01  6.04037219E-01  6.04125684E-01  6.32461799E-01
  6.32504691E-01  6.67315275E-01  6.67331823E-01  7.44710528E-01  8.31864548E-01
  8.31882967E-01  8.39333866E-01  8.57049383E-01  8.57099554E-01  9.34601316E-01
  9.44807488E-01  9.44883407E-01  9.58348211E-01  1.09021699E+00  1.09026036E+00
  1.14375045E+00  1.14380519E+00  1.20361422E+00  1.26117869E+00  1.39611060E+00
  1.43105444E+00  1.43110699E+00  1.48717565E+00  1.48723732E+00  1.51608456E+00
  1.51609609E+00  1.75860509E+00  1.79134797E+00  1.84682129E+00  1.89679610E+00
  1.95974029E+00  1.95977992E+00  2.06916241E+00  2.06917828E+00  2.15298898E+00
  2.15308148E+00  2.15855857E+00  2.15865261E+00  2.31043477E+00  2.31066711E+00
  2.32428861E+00  2.54134033E+00  2.54141117E+00  2.65954513E+00  2.70298358E+00
  2.70310859E+00  2.72669480E+00  2.72683387E+00  2.75610260E+00  3.01972534E+00
  3.40751651E+00
Alpha MO coefficients                      R   N=        9216
  3.67791727E-01  1.15678606E-02 -2.20945525E-04 -3.79769130E-04  1.01701923E-07
 -4.43905538E-03  4.12296864E-04  7.13082724E-04  2.87863593E-07  1.56907511E-04
  4.14782648E-08  9.65457275E-08 -1.58504877E-04  2.71991746E-04  3.81836893E-01
  1.20257040E-02  1.52143066E-04 -4.23120018E-04  6.01693596E-07 -4.49053491E-03
 -3.15738637E-04  8.33179717E-04 -2.49869031E-06  1.73218783E-04  1.77206801E-07
 -4.19352451E-07 -1.12365198E-04 -3.17588445E-04  4.28943558E-01  1.36977021E-02
  4.10205606E-04 -8.49131330E-05  8.63717262E-08 -5.52981035E-03 -7.37842606E-04
  1.60115694E-04  9.08627572E-07  1.73007700E-04 -3.22752311E-07  3.07553766E-07
  3.33124984E-04  6.84463734E-05  4.50009285E-01  1.44381093E-02  1.90410431E-04
  3.48188751E-04  1.81106894E-08 -5.90951298E-03 -3.43405222E-04 -6.33375817E-04
 -6.89552690E-07  1.74063143E-04 -3.98426231E-07  4.20487335E-07 -1.60158938E-04
  2.94866333E-04  4.20643180E-01  1.33940773E-02 -2.85213131E-04  3.19301268E-04
 -3.33965956E-07 -5.30611668E-03  5.26600307E-04 -5.88518868E-04  5.48072628E-07
  1.77186913E-04  1.16140299E-07  9.24867690E-08 -2.27411828E-04 -2.57257948E-04
  3.81311798E-01  1.20200691E-02 -4.38395307E-04 -6.94768414E-05 -8.82944097E-08
 -4.54726014E-03  8.59545255E-04  1.22415610E-04  3.58594333E-07  1.67499908E-04
  1.93669022E-07  4.92643908E-07  3.25842566E-04 -5.44400532E-05 -5.84528253E-04
  1.94673646E-03 -6.08513318E-04  2.00598455E-03 -6.74583991E-04  2.15537874E-03
 -7.03555618E-04  2.23163768E-03 -6.64150839E-04  2.12946158E-03 -6.06089883E-04
  2.00194717E-03  5.60244791E-01  1.95120799E-02  4.91336200E-04  6.24771943E-06
  3.37125099E-09 -1.03495001E-02 -1.09591707E-03 -3.68063357E-04 -1.24255173E-07
  1.12923608E-04 -1.46760944E-07  1.41963150E-07  2.13516095E-04  2.91319107E-04
  1.36687085E-01  4.71050579E-03  1.05708572E-03  6.52245384E-04  2.30708027E-09
 -2.43543334E-03 -1.89206395E-03 -1.23592992E-03  1.80165800E-07  2.16926606E-05
  5.27489795E-08  3.91987093E-08 -8.62886760E-04  4.54125728E-04 -4.06591505E-01
 -1.43211058E-02  2.63056432E-04  8.38895823E-04 -1.97857959E-07  7.74061681E-03
 -7.52792243E-04 -1.53996898E-03 -5.99880557E-08 -6.75565845E-05  2.29581830E-07
 -7.30803469E-07 -7.48781382E-05 -6.61474932E-04 -5.21958762E-01 -1.84181255E-02
  5.51252837E-04  7.69303295E-05 -9.16636148E-08  1.03124644E-02 -1.25241525E-03
 -5.59255820E-04  9.21089981E-07 -6.51142388E-05  6.54636729E-08 -5.58131207E-07
 -2.61402708E-04 -2.40373183E-04 -6.23170274E-02 -2.23452461E-03  1.05962784E-03
  6.87723588E-04 -2.32410978E-07  1.09786677E-03 -1.93923038E-03 -1.25198973E-03
 -9.11197493E-08 -2.04096571E-05  7.50977674E-07  8.33407082E-07  8.64941305E-04
 -4.85262088E-04  4.64803568E-01  1.61751128E-02  2.04230392E-04  8.02300603E-04
 -6.00883930E-07 -8.49118254E-03 -6.49251036E-04 -1.45141472E-03  1.48186303E-06
  9.00039937E-05 -4.43042158E-07  5.07681059E-08  1.19466116E-04  6.28154160E-04
 -8.17485054E-04  1.93963859E-03 -1.97761101E-04  5.16685791E-04  5.84407840E-04
 -1.33472854E-03  7.45659907E-04 -1.69953726E-03  9.05907306E-05 -1.75246813E-04
 -6.75649080E-04  1.63040093E-03 -1.99228684E-01 -6.95164471E-03  9.69242482E-04
 -6.67562285E-04  5.93125568E-07  3.76642942E-03 -1.66076620E-03  1.36805487E-03
 -2.35066970E-06 -3.87610786E-05 -4.29662721E-07  2.16423531E-07  8.21199544E-04
  4.16675127E-04 -5.60522024E-01 -1.95561847E-02  3.53011297E-04 -1.14500155E-04
 -3.91980532E-07  1.02104899E-02 -8.11345162E-04  4.74020122E-04  2.01861943E-06
 -1.18245923E-04 -1.27501327E-07  2.90602210E-07 -9.79819779E-05  2.22527430E-04
 -3.97577827E-01 -1.39623026E-02  2.22761965E-04 -9.66345390E-04  8.22513446E-07
  7.86290113E-03 -8.08027319E-04  1.75873755E-03 -2.82029537E-06 -4.28593399E-05
 -2.77327604E-07  6.97749882E-07 -6.28670435E-05  7.58320862E-04  1.93402109E-01
  6.83287254E-03  9.96857396E-04 -7.22167118E-04  7.70218810E-07 -3.94089471E-03
 -1.71549952E-03  1.52451254E-03 -6.35841352E-07  1.84463703E-05  1.84464767E-08
 -9.25377048E-07 -8.46799610E-04 -4.61720132E-04  5.64248565E-01  1.98058816E-02
  3.42171969E-04 -1.80015832E-04  3.28308509E-07 -1.07336835E-02 -8.10240450E-04
  6.77284100E-04 -1.81844736E-06  8.53586601E-05  1.90629382E-07  1.90564724E-07
  8.60902011E-05 -1.72593634E-04  3.50022908E-01  1.22550821E-02  1.90151340E-04
 -9.76733914E-04  5.25471389E-07 -6.54752966E-03 -6.22487193E-04  1.78281217E-03
  4.48374849E-09  7.52704371E-05  6.43673322E-07  3.52605034E-07  8.59720649E-05
 -7.68001453E-04  2.91082499E-04 -6.78638972E-04  8.16254192E-04 -1.92767062E-03
  5.67719728E-04 -1.33665251E-03 -2.75172759E-04  6.23300890E-04 -8.09641860E-04
  1.89920395E-03 -5.11551582E-04  1.16538989E-03  5.34191406E-01  2.02982021E-02
  1.93889807E-04  8.88438876E-04 -5.03073371E-07 -1.79102298E-02 -9.87672837E-04
 -3.02819451E-03  1.62311173E-06 -6.56670940E-04  3.81350719E-07 -6.76056485E-07
  9.06883799E-05 -6.36442756E-04 -1.10166095E-01 -4.13867240E-03  9.43358504E-04
  3.39504176E-04 -1.13228006E-08  2.95913680E-03 -2.16819521E-03 -1.00910999E-03
  2.85538723E-07  1.37773590E-04  3.36611622E-07  1.11763035E-07 -8.04723910E-04
  3.24344001E-04 -4.35901043E-01 -1.67403971E-02  7.29512059E-04 -6.80822511E-04
  1.06907645E-06  1.67598750E-02 -3.66590911E-03  1.66947625E-03 -3.55785930E-06
  5.72293637E-04 -7.25525273E-07  1.54484262E-06  5.27839962E-04  5.96965362E-04
  5.69165230E-01  2.18897037E-02 -2.72827137E-04 -9.64625239E-04  8.55035696E-07
 -2.18123666E-02  1.81996560E-03  4.36894579E-03 -3.09031664E-06 -7.64950909E-04
  1.18863736E-06 -1.00027226E-06  1.65529990E-04 -7.19700154E-04 -1.88035172E-01
 -7.23720106E-03 -9.84593702E-04 -2.12471742E-04 -1.63692518E-08  7.68073020E-03
  2.95046745E-03 -4.48599313E-04  1.36255501E-06  2.39581583E-04 -8.47916433E-07
 -4.17822057E-07 -8.36521753E-04  2.25855149E-04 -3.78852192E-01 -1.43763359E-02
 -6.12591452E-04  7.38862975E-04 -2.91513547E-07  1.24421147E-02  2.05083852E-03
 -1.77111583E-03  5.73142880E-07  4.67946986E-04 -3.60162051E-07  5.30824984E-07
  4.23015392E-04  6.41912544E-04 -5.18365280E-04  1.61775597E-03  9.58575946E-05
 -4.27626587E-04  4.34156453E-04 -1.10015083E-03 -5.57213864E-04  1.45864433E-03
  1.97092283E-04 -4.13178896E-04  3.63445519E-04 -1.18454739E-03 -1.42885578E-01
 -5.44418585E-03 -9.89589986E-04  2.98123137E-04  7.15608764E-08  4.88083518E-03
  2.53115311E-03 -4.50752820E-04  3.90317152E-07  1.79565282E-04  1.76218484E-07
 -4.27016492E-07 -8.39700311E-04 -2.95162971E-04  5.61738320E-01  2.13991693E-02
 -2.46399280E-04  9.09966543E-04  4.52770957E-07 -1.96886171E-02  1.35751655E-03
 -3.54061750E-03 -7.21465378E-07 -6.97881094E-04  2.37417927E-07 -2.73133410E-07
  1.34671639E-04  6.57242231E-04 -3.83660094E-01 -1.46998006E-02  6.55230152E-04
  7.26564972E-04  4.46547726E-07  1.38132658E-02 -2.66007286E-03 -1.74957673E-03
 -1.08101191E-06  5.12643438E-04 -2.30161341E-08 -1.42489337E-07  4.69646930E-04
 -6.32556536E-04 -1.50855661E-01 -5.80929807E-03  9.46914355E-04 -2.44161760E-04
  6.73176933E-07  5.77222741E-03 -2.61021420E-03  8.15221576E-05 -1.08861312E-06
  2.04694651E-04 -6.34572713E-08 -3.39826435E-07 -8.09101611E-04 -2.48452947E-04
  5.51963982E-01  2.11391293E-02  2.20089979E-04 -9.41509323E-04  1.16737713E-06
 -2.02382323E-02 -1.45725634E-03  3.86038280E-03 -4.30403264E-06 -7.25310173E-04
 -3.14221558E-07 -8.77410649E-07  1.22336268E-04  6.97310230E-04 -4.23977514E-01
 -1.61941918E-02 -6.95912580E-04 -7.01577619E-04  8.46653017E-07  1.53071955E-02
  3.07307495E-03  1.70732057E-03 -2.02031131E-06  5.31454754E-04  3.68740913E-07
  1.26967198E-06  4.87659955E-04 -6.12986159E-04  1.37701866E-04 -4.23600782E-04
 -5.53324983E-04  1.60908142E-03  3.65310730E-04 -1.08713002E-03  1.46824945E-04
 -3.87337455E-04 -5.36251834E-04  1.51303618E-03  4.20965474E-04 -1.16073433E-03
  4.42384777E-01  1.82698292E-02  4.57164007E-04  7.89769665E-04 -6.13032621E-07
 -3.22898013E-02 -5.92157625E-03 -1.02579906E-02  5.84783894E-06 -8.06690217E-04
  2.75169089E-07 -3.43995340E-07  4.02994884E-04 -6.96192075E-04 -4.28909949E-01
 -1.77211336E-02  4.90008681E-04 -7.30348900E-04 -5.01004467E-08  3.16493886E-02
 -5.97305503E-03  1.00561927E-02 -3.21523403E-06  7.76532954E-04 -4.83902823E-07
  6.02516825E-07 -4.33562890E-04 -6.45426230E-04  3.81754107E-01  1.59439815E-02
 -8.09067385E-04 -7.17147475E-05 -8.37481790E-07 -3.00651932E-02  1.14027406E-02
  1.66164194E-04  7.97500143E-06 -7.24957852E-04  1.50946189E-08 -8.03264219E-07
 -7.29437524E-04  6.08862548E-05 -3.62295841E-01 -1.51940686E-02  3.95656421E-04
  6.64893757E-04 -4.54357321E-07  2.93573967E-02 -5.64770780E-03 -9.73982124E-03
  4.89473017E-06  6.99875336E-04 -1.39073526E-06  7.84586456E-07 -3.59316464E-04
  6.07391145E-04  3.88710959E-01  1.61977320E-02  3.50920411E-04 -7.40091959E-04
  7.27292637E-07 -3.02517186E-02 -5.57911311E-03  9.97764799E-03 -1.02658683E-05
 -7.28212182E-04 -3.19085578E-07 -6.66570133E-07  3.16078516E-04  6.63313409E-04
 -4.27872696E-01 -1.76939147E-02 -8.80103866E-04  5.37282046E-05  4.49077689E-08
  3.16777547E-02  1.17099892E-02 -1.35955148E-04 -7.89526365E-07  7.80958059E-04
 -1.56624794E-07  1.58248936E-06  7.79808918E-04  4.71075312E-05 -5.37680704E-04
 -5.12711792E-04  5.28582070E-04  5.41160621E-04 -4.79554008E-04 -6.80658257E-04
  4.60581259E-04  7.31304148E-04 -4.87940318E-04 -6.58425897E-04  5.25920119E-04
  5.46832478E-04 -9.37013331E-02  1.77197305E-01  3.07291241E-02  5.32787921E-02
 -2.88299242E-05  1.12645608E-01  3.74633592E-03  6.47856072E-03 -4.51316567E-06
 -9.05655761E-03  8.19479266E-07 -8.65941467E-06 -5.20342988E-05  8.98507114E-05
 -9.37041204E-02  1.77201368E-01 -3.07230024E-02  5.32780437E-02  4.55177746E-06
  1.12645396E-01 -3.74058150E-03  6.47256853E-03  4.69764807E-06 -9.05560908E-03
  4.12485114E-06 -7.40378664E-06 -5.16997965E-05 -8.86622393E-05 -9.36629073E-02
  1.77127981E-01 -6.14930904E-02 -8.25382090E-05 -4.43944695E-05  1.12599504E-01
 -7.48037608E-03  1.26310174E-06 -6.52750609E-06 -9.05403124E-03  1.00470220E-05
 -8.02073938E-06  1.05101334E-04  5.15275038E-06 -9.36471484E-02  1.77098578E-01
 -3.07961879E-02 -5.32181980E-02  3.54898382E-05  1.12605643E-01 -3.74942692E-03