 Entering Gaussian System, Link 0=g09
 Input=./znp.com
 Output=./znp.log
 Initial command:
 /opt/chemistry/nbo//g09/l1.exe /scratch/jshigh/Gau-27298.inp -scrdir=/scratch/jshigh/
 Entering Link 1 = /opt/chemistry/nbo//g09/l1.exe PID=     27299.
  
 Copyright (c) 1988,1990,1992,1993,1995,1998,2003,2009,2010,
            Gaussian, Inc.  All Rights Reserved.
  
 This is part of the Gaussian(R) 09 program.  It is based on
 the Gaussian(R) 03 system (copyright 2003, Gaussian, Inc.),
 the Gaussian(R) 98 system (copyright 1998, Gaussian, Inc.),
 the Gaussian(R) 94 system (copyright 1995, Gaussian, Inc.),
 the Gaussian 92(TM) system (copyright 1992, Gaussian, Inc.),
 the Gaussian 90(TM) system (copyright 1990, Gaussian, Inc.),
 the Gaussian 88(TM) system (copyright 1988, Gaussian, Inc.),
 the Gaussian 86(TM) system (copyright 1986, Carnegie Mellon
 University), and the Gaussian 82(TM) system (copyright 1983,
 Carnegie Mellon University). Gaussian is a federally registered
 trademark of Gaussian, Inc.
  
 This software contains proprietary and confidential information,
 including trade secrets, belonging to Gaussian, Inc.
  
 This software is provided under written license and may be
 used, copied, transmitted, or stored only in accord with that
 written license.
  
 The following legend is applicable only to US Government
 contracts under FAR:
  
                    RESTRICTED RIGHTS LEGEND
  
 Use, reproduction and disclosure by the US Government is
 subject to restrictions as set forth in subparagraphs (a)
 and (c) of the Commercial Computer Software - Restricted
 Rights clause in FAR 52.227-19.
  
 Gaussian, Inc.
 340 Quinnipiac St., Bldg. 40, Wallingford CT 06492
  
  
 ---------------------------------------------------------------
 Warning -- This program may not be used in any manner that
 competes with the business of Gaussian, Inc. or will provide
 assistance to any competitor of Gaussian, Inc.  The licensee
 of this program is prohibited from giving any competitor of
 Gaussian, Inc. access to this program.  By using this program,
 the user acknowledges that Gaussian, Inc. is engaged in the
 business of creating and licensing software in the field of
 computational chemistry and represents and warrants to the
 licensee that it is not a competitor of Gaussian, Inc. and that
 it will not use this program in any manner prohibited above.
 ---------------------------------------------------------------
  

 Cite this work as:
 Gaussian 09, Revision B.01,
 M. J. Frisch, G. W. Trucks, H. B. Schlegel, G. E. Scuseria, 
 M. A. Robb, J. R. Cheeseman, G. Scalmani, V. Barone, B. Mennucci, 
 G. A. Petersson, H. Nakatsuji, M. Caricato, X. Li, H. P. Hratchian, 
 A. F. Izmaylov, J. Bloino, G. Zheng, J. L. Sonnenberg, M. Hada, 
 M. Ehara, K. Toyota, R. Fukuda, J. Hasegawa, M. Ishida, T. Nakajima, 
 Y. Honda, O. Kitao, H. Nakai, T. Vreven, J. A. Montgomery, Jr., 
 J. E. Peralta, F. Ogliaro, M. Bearpark, J. J. Heyd, E. Brothers, 
 K. N. Kudin, V. N. Staroverov, T. Keith, R. Kobayashi, J. Normand, 
 K. Raghavachari, A. Rendell, J. C. Burant, S. S. Iyengar, J. Tomasi, 
 M. Cossi, N. Rega, J. M. Millam, M. Klene, J. E. Knox, J. B. Cross, 
 V. Bakken, C. Adamo, J. Jaramillo, R. Gomperts, R. E. Stratmann, 
 O. Yazyev, A. J. Austin, R. Cammi, C. Pomelli, J. W. Ochterski, 
 R. L. Martin, K. Morokuma, V. G. Zakrzewski, G. A. Voth, 
 P. Salvador, J. J. Dannenberg, S. Dapprich, A. D. Daniels, 
 O. Farkas, J. B. Foresman, J. V. Ortiz, J. Cioslowski, 
 and D. J. Fox, Gaussian, Inc., Wallingford CT, 2010.
 
 ******************************************
 Gaussian 09:  AM64L-G09RevB.01 12-Aug-2010
                11-Feb-2014 
 ******************************************
 %chk=znp.chk
 %Mem=24GB
 %nproc=12
 Will use up to   12 processors via shared memory.
 ----------------------------------------------------------------------
 #p td(singlets,add=10) b3lyp/gen nosymm pseudo=cards geom=check guess=
 read
 ----------------------------------------------------------------------
 1/29=2,38=1/1;
 2/12=2,15=1,40=1/2;
 3/5=7,11=2,14=-4,16=1,17=8,25=1,30=1,74=-5,116=-2/1,2,8,3;
 4/5=1/1;
 5/5=2,38=6/2;
 8/6=1,10=1/1;
 9/39=10,42=1,48=1/14;
 6/7=2,8=2,9=2,10=2/1;
 99/5=1,9=1/99;
 Leave Link    1 at Tue Feb 11 11:55:43 2014, MaxMem= 3221225472 cpu:       0.9
 (Enter /opt/chemistry/nbo//g09/l101.exe)
 --------------------------------------------------
 opt diznfbtppbz with opt starting geom from Kushal
 --------------------------------------------------
 Z-Matrix taken from the checkpoint file:
 znp.chk
 Charge =  0 Multiplicity = 1
 C,0,33.23102898,-0.03468467,0.03281404
 C,0,33.85519355,0.70374674,-0.97977488
 C,0,33.84972667,-0.76840396,1.05216128
 C,0,33.17826689,1.45042184,-2.01879638
 N,0,35.21161205,0.83058071,-1.1409167
 C,0,33.16722714,-1.52026375,2.08377098
 N,0,35.2052379,-0.8849295,1.22805672
 C,0,34.1454469,2.02060109,-2.79508112
 H,0,32.10375756,1.52374545,-2.13237748
 C,0,35.42211935,1.62742411,-2.23752683
 Zn,0,36.67059284,-0.02151757,0.05161283
 C,0,34.13020575,-2.08307594,2.87058025
 H,0,32.09213535,-1.60178642,2.18564499
 C,0,35.40984487,-1.68012772,2.32697855
 H,0,34.01484029,2.65032395,-3.66641485
 C,0,36.67803206,1.99707629,-2.73381765
 N,0,38.13589596,0.84261283,-1.12424925
 N,0,38.12953324,-0.87431202,1.24357774
 H,0,33.99492143,-2.71379299,3.74048048
 C,0,36.66304486,-2.04008936,2.83705848
 C,0,37.93119819,1.63705037,-2.22374149
 C,0,39.49143191,0.72533986,-0.94897577
 C,0,37.91892308,-1.67038377,2.3407621
 C,0,39.4859654,-0.74674468,1.08304751
 C,0,39.21079762,2.04024794,-2.76723296
 C,0,40.17382624,1.47776153,-1.98020709
 C,0,40.11011721,-0.00835021,0.07041386
 C,0,39.19556049,-2.06382374,2.89819905
 C,0,40.16279511,-1.49400339,2.12167618
 H,0,39.34613709,2.67102518,-3.63709104
 H,0,41.24888099,1.55957377,-2.08220927
 H,0,39.32621938,-2.69359713,3.76949847
 H,0,41.23726787,-1.56764612,2.23537174
 H,0,36.6804721,2.63464242,-3.61371654
 H,0,41.19670512,-0.00424528,0.07631376
 H,0,36.66072447,-2.67764973,3.71696141
 H,0,32.14445182,-0.03879873,0.02690604
 Recover connectivity data from disk.
 NAtoms=     37 NQM=     37 NQMF=      0 NMic=      0 NMicF=      0 NTot=     37.
                    Isotopes and Nuclear Properties:
 (Nuclear quadrupole moments (NQMom) in fm**2, nuclear magnetic moments (NMagM)
  in nuclear magnetons)

  Atom         1           2           3           4           5           6           7           8           9          10
 IAtWgt=          12          12          12          12          14          12          14          12           1          12
 AtmWgt=  12.0000000  12.0000000  12.0000000  12.0000000  14.0030740  12.0000000  14.0030740  12.0000000   1.0078250  12.0000000
 NucSpn=           0           0           0           0           2           0           2           0           1           0
 AtZEff=  -3.6000000  -3.6000000  -3.6000000  -3.6000000  -4.5500000  -3.6000000  -4.5500000  -3.6000000  -1.0000000  -3.6000000
 NQMom=    0.0000000   0.0000000   0.0000000   0.0000000   2.0440000   0.0000000   2.0440000   0.0000000   0.0000000   0.0000000
 NMagM=    0.0000000   0.0000000   0.0000000   0.0000000   0.4037610   0.0000000   0.4037610   0.0000000   2.7928460   0.0000000

  Atom        11          12          13          14          15          16          17          18          19          20
 IAtWgt=          64          12           1          12           1          12          14          14           1          12
 AtmWgt=  63.9291454  12.0000000   1.0078250  12.0000000   1.0078250  12.0000000  14.0030740  14.0030740   1.0078250  12.0000000
 NucSpn=           0           0           1           0           1           0           2           2           1           0
 AtZEff= -19.0500000  -3.6000000  -1.0000000  -3.6000000  -1.0000000  -3.6000000  -4.5500000  -4.5500000  -1.0000000  -3.6000000
 NQMom=    0.0000000   0.0000000   0.0000000   0.0000000   0.0000000   0.0000000   2.0440000   2.0440000   0.0000000   0.0000000
 NMagM=    0.0000000   0.0000000   2.7928460   0.0000000   2.7928460   0.0000000   0.4037610   0.4037610   2.7928460   0.0000000

  Atom        21          22          23          24          25          26          27          28          29          30
 IAtWgt=          12          12          12          12          12          12          12          12          12           1
 AtmWgt=  12.0000000  12.0000000  12.0000000  12.0000000  12.0000000  12.0000000  12.0000000  12.0000000  12.0000000   1.0078250
 NucSpn=           0           0           0           0           0           0           0           0           0           1
 AtZEff=  -3.6000000  -3.6000000  -3.6000000  -3.6000000  -3.6000000  -3.6000000  -3.6000000  -3.6000000  -3.6000000  -1.0000000
 NQMom=    0.0000000   0.0000000   0.0000000   0.0000000   0.0000000   0.0000000   0.0000000   0.0000000   0.0000000   0.0000000
 NMagM=    0.0000000   0.0000000   0.0000000   0.0000000   0.0000000   0.0000000   0.0000000   0.0000000   0.0000000   2.7928460

  Atom        31          32          33          34          35          36          37
 IAtWgt=           1           1           1           1           1           1           1
 AtmWgt=   1.0078250   1.0078250   1.0078250   1.0078250   1.0078250   1.0078250   1.0078250
 NucSpn=           1           1           1           1           1           1           1
 AtZEff=  -1.0000000  -1.0000000  -1.0000000  -1.0000000  -1.0000000  -1.0000000  -1.0000000
 NQMom=    0.0000000   0.0000000   0.0000000   0.0000000   0.0000000   0.0000000   0.0000000
 NMagM=    2.7928460   2.7928460   2.7928460   2.7928460   2.7928460   2.7928460   2.7928460
 Leave Link  101 at Tue Feb 11 11:55:44 2014, MaxMem= 3221225472 cpu:       1.2
 (Enter /opt/chemistry/nbo//g09/l202.exe)
                          Input orientation:                          
 ---------------------------------------------------------------------
 Center     Atomic      Atomic             Coordinates (Angstroms)
 Number     Number       Type             X           Y           Z
 ---------------------------------------------------------------------
      1          6           0       33.231029   -0.034685    0.032814
      2          6           0       33.855194    0.703747   -0.979775
      3          6           0       33.849727   -0.768404    1.052161
      4          6           0       33.178267    1.450422   -2.018796
      5          7           0       35.211612    0.830581   -1.140917
      6          6           0       33.167227   -1.520264    2.083771
      7          7           0       35.205238   -0.884930    1.228057
      8          6           0       34.145447    2.020601   -2.795081
      9          1           0       32.103758    1.523745   -2.132377
     10          6           0       35.422119    1.627424   -2.237527
     11         30           0       36.670593   -0.021518    0.051613
     12          6           0       34.130206   -2.083076    2.870580
     13          1           0       32.092135   -1.601786    2.185645
     14          6           0       35.409845   -1.680128    2.326979
     15          1           0       34.014840    2.650324   -3.666415
     16          6           0       36.678032    1.997076   -2.733818
     17          7           0       38.135896    0.842613   -1.124249
     18          7           0       38.129533   -0.874312    1.243578
     19          1           0       33.994921   -2.713793    3.740480
     20          6           0       36.663045   -2.040089    2.837058
     21          6           0       37.931198    1.637050   -2.223741
     22          6           0       39.491432    0.725340   -0.948976
     23          6           0       37.918923   -1.670384    2.340762
     24          6           0       39.485965   -0.746745    1.083048
     25          6           0       39.210798    2.040248   -2.767233
     26          6           0       40.173826    1.477762   -1.980207
     27          6           0       40.110117   -0.008350    0.070414
     28          6           0       39.195560   -2.063824    2.898199
     29          6           0       40.162795   -1.494003    2.121676
     30          1           0       39.346137    2.671025   -3.637091
     31          1           0       41.248881    1.559574   -2.082209
     32          1           0       39.326219   -2.693597    3.769498
     33          1           0       41.237268   -1.567646    2.235372
     34          1           0       36.680472    2.634642   -3.613717
     35          1           0       41.196705   -0.004245    0.076314
     36          1           0       36.660724   -2.677650    3.716961
     37          1           0       32.144452   -0.038799    0.026906
 ---------------------------------------------------------------------
                    Distance matrix (angstroms):
                    1          2          3          4          5
     1  C    0.000000
     2  C    1.400071   0.000000
     3  C    1.400071   2.509188   0.000000
     4  C    2.533265   1.447522   3.847704   0.000000
     5  N    2.459479   1.371833   3.036622   2.299863   0.000000
     6  C    2.533267   3.847705   1.447521   5.065190   4.483814
     7  N    2.459476   3.036615   1.371834   4.483808   2.924902
     8  C    3.613496   2.261347   4.761016   1.364976   2.299808
     9  H    2.896118   2.251315   4.294606   1.082981   3.335001
    10  C    3.566221   2.211420   4.362850   2.261426   1.371797
    11  Zn   3.439640   3.084841   3.084838   4.318511   2.068048
    12  C    3.613495   4.761013   2.261344   6.107192   5.074539
    13  H    2.896130   4.294618   2.251319   5.307823   5.168516
    14  C    3.566218   4.362845   2.211418   5.802244   4.285936
    15  H    4.637664   3.321548   5.829230   2.203240   3.334947
    16  C    4.864580   3.566200   5.475475   3.613647   2.459356
    17  N    5.115288   4.285390   5.069851   5.074222   2.924356
    18  N    5.115297   5.069866   4.285394   6.368870   4.136029
    19  H    4.637666   5.829229   3.321548   7.153802   6.153939
    20  C    4.864583   5.475480   3.566203   6.921465   5.115827
    21  C    5.475247   4.362605   5.759875   4.761007   3.036289
    22  C    6.382334   5.636364   6.169656   6.444091   4.285414
    23  C    5.475261   5.759892   4.362616   7.156745   5.070152
    24  C    6.382339   6.169664   5.636365   7.364512   5.069918
    25  C    6.921217   5.802046   7.156632   6.107330   4.483490
    26  C    7.385268   6.443996   7.364425   6.995719   5.074133
    27  C    6.879241   6.382323   6.382319   7.385348   5.115318
    28  C    6.921233   7.156651   5.802061   8.528458   6.368978
    29  C    7.385278   7.364438   6.444004   8.636943   6.368863
    30  H    7.627819   6.409522   8.001830   6.492409   5.168406
    31  H    8.443988   7.524255   8.366077   8.071601   6.153542
    32  H    7.627842   8.001854   6.409545   9.406092   7.311771
    33  H    8.443997   8.366087   7.524263   9.599697   7.311590
    34  H    5.685169   4.318357   6.431505   4.026362   3.395133
    35  H    7.965853   7.450796   7.450793   8.414327   6.164408
    36  H    5.685158   6.431499   4.318343   7.878287   6.164948
    37  H    1.086601   2.119296   2.119300   2.733395   3.395159
                    6          7          8          9         10
     6  C    0.000000
     7  N    2.299866   0.000000
     8  C    6.107195   5.074535   0.000000
     9  H    5.307812   5.168502   2.203301   0.000000
    10  C    5.802249   4.285934   1.447532   3.321646   0.000000
    11  Zn   4.318504   2.068034   4.318597   5.292791   3.085102
    12  C    1.364974   2.299811   6.995721   6.491936   6.444347
    13  H    1.082980   3.335006   6.491950   5.330516   6.409450
    14  C    2.261424   1.371799   6.444346   6.409436   5.636910
    15  H    7.153802   6.153935   1.082973   2.697163   2.251328
    16  C    6.921459   5.115812   2.533435   4.637862   1.400094
    17  N    6.368850   4.136001   4.483639   6.153613   3.036429
    18  N    5.074215   2.924356   6.369006   7.311479   5.070194
    19  H    2.203242   3.334948   8.071599   7.484898   7.524602
    20  C    3.613641   2.459366   7.385696   7.627799   6.382943
    21  C    7.156725   5.070124   3.847785   5.829258   2.509135
    22  C    7.364500   5.069901   5.802186   7.524335   4.362731
    23  C    4.761008   3.036303   7.364739   8.001724   6.170113
    24  C    6.444085   4.285411   7.156761   8.366067   5.760012
    25  C    8.528436   6.368949   5.065465   7.154008   3.847739
    26  C    8.636927   6.368841   6.107377   8.071634   4.761022
    27  C    7.385338   5.115307   6.921344   8.444016   5.475370
    28  C    6.107336   4.483508   8.637107   9.405904   7.364771
    29  C    6.995720   5.074140   8.528507   9.599576   7.156813
    30  H    9.406067   7.311739   5.308409   7.485484   4.294857
    31  H    9.599683   7.311572   7.153985   9.145331   5.829226
    32  H    6.492424   5.168432   9.599884  10.236311   8.366455
    33  H    8.071604   6.153549   9.406110  10.585601   8.001953
    34  H    7.878293   6.164939   2.733782   4.937081   2.119396
    35  H    8.414316   6.164397   7.878144   9.481285   6.431333
    36  H    4.026335   3.395134   8.414682   8.522466   7.451425
    37  H    2.733405   3.395160   4.026006   2.665653   4.318224
                   11         12         13         14         15
    11  Zn   0.000000
    12  C    4.318584   0.000000
    13  H    5.292789   2.203295   0.000000
    14  C    3.085087   1.447531   3.321643   0.000000
    15  H    5.292966   8.071598   7.484908   7.524601   0.000000
    16  C    3.439971   7.385685   7.627803   6.382929   2.896387
    17  N    2.067967   6.368977   7.311466   5.070162   5.168513
    18  N    2.067981   4.483622   6.153607   3.036413   7.311757
    19  H    5.292949   1.082974   2.697159   2.251324   9.145285
    20  C    3.439970   2.533426   4.637851   1.400094   8.444414
    21  C    3.084998   7.364713   8.001713   6.170085   4.294868
    22  C    3.084819   7.156742   8.366060   5.759992   6.409610
    23  C    3.085011   3.847779   5.829256   2.509135   8.366394
    24  C    3.084823   5.802173   7.524330   4.362720   8.001917
    25  C    4.318496   8.637080   9.405890   7.364742   5.308361
    26  C    4.318423   8.528485   9.599566   7.156789   6.492404
    27  C    3.439601   6.921326   8.444008   5.475352   7.627899
    28  C    4.318510   5.065467   7.154010   3.847747   9.599854
    29  C    4.318432   6.107372   8.071633   4.761022   9.406104
    30  H    5.292907   9.599854  10.236294   8.366424   5.331418
    31  H    5.292804   9.406092  10.585593   8.001934   7.485372
    32  H    5.292923   5.308422   7.485494   4.294878  10.585889
    33  H    5.292810   7.153984   9.145331   5.829228  10.236494
    34  H    4.526580   8.414679   8.522485   7.451416   2.666199
    35  H    4.526213   7.878126   9.481277   6.431316   8.522555
    36  H    4.526579   2.733753   4.937046   2.119387   9.481680
    37  H    4.526241   4.026012   2.665675   4.318227   4.936634
                   16         17         18         19         20
    16  C    0.000000
    17  N    2.459444   0.000000
    18  N    5.115799   2.924804   0.000000
    19  H    8.444401   7.311723   5.168484   0.000000
    20  C    6.879941   5.115782   2.459432   2.896365   0.000000
    21  C    1.400079   1.371829   4.285858   8.366365   6.382889
    22  C    3.566258   1.371842   3.036601   8.001891   5.475530
    23  C    6.382902   4.285853   1.371824   4.294846   1.400079
    24  C    5.475537   3.036594   1.371842   6.409586   3.566255
    25  C    2.533354   2.299813   5.074485   9.599823   7.385681
    26  C    3.613612   2.299834   4.483768   9.406076   6.921482
    27  C    4.864633   2.459453   2.459454   7.627872   4.864627
    28  C    7.385694   5.074481   2.299810   5.308347   2.533365
    29  C    6.921491   4.483763   2.299832   6.492386   3.613618
    30  H    2.896359   3.334989   6.153899  10.585856   8.444418
    31  H    4.637743   3.335026   5.168655  10.236470   7.628018
    32  H    8.444432   6.153894   3.334986   5.331415   2.896380
    33  H    7.628022   5.168647   3.335024   7.485358   4.637752
    34  H    1.086609   3.395155   6.164888   9.481675   7.966550
    35  H    5.685115   3.395154   3.395153   8.522526   5.685108
    36  H    7.966550   6.164876   3.395151   2.666152   1.086608
    37  H    5.685045   6.164369   6.164379   4.936645   5.685051
                   21         22         23         24         25
    21  C    0.000000
    22  C    2.211464   0.000000
    23  C    5.636840   4.362872   0.000000
    24  C    4.362870   2.509219   2.211465   0.000000
    25  C    1.447524   2.261371   6.444326   4.761061   0.000000
    26  C    2.261429   1.447494   5.802257   3.847741   1.365000
    27  C    3.566256   1.400081   3.566254   1.400078   3.613554
    28  C    6.444327   4.761064   1.447527   2.261373   6.995767
    29  C    5.802256   3.847742   2.261431   1.447496   6.107263
    30  H    2.251380   3.321561   7.524593   5.829272   1.082982
    31  H    3.321604   2.251398   6.409674   4.294860   2.203200
    32  H    7.524594   5.829273   2.251385   3.321562   8.071646
    33  H    6.409670   4.294857   3.321607   2.251397   6.492267
    34  H    2.119324   4.318307   7.451364   6.431498   2.733567
    35  H    4.318291   2.119309   4.318287   2.119304   4.026107
    36  H    7.451355   6.431502   2.119333   4.318319   8.414642
    37  H    6.431199   7.450797   6.431214   7.450802   7.878000
                   26         27         28         29         30
    26  C    0.000000
    27  C    2.533305   0.000000
    28  C    6.107264   3.613552   0.000000
    29  C    5.065269   2.533302   1.365000   0.000000
    30  H    2.203228   4.637705   8.071647   7.153866   0.000000
    31  H    1.082978   2.896369   6.492272   5.308161   2.696927
    32  H    7.153865   4.637701   1.082982   2.203225   9.145334
    33  H    5.308156   2.896362   2.203203   1.082978   7.485221
    34  H    4.026195   5.685129   8.414648   7.878262   2.666016
    35  H    2.733478   1.086612   4.026100   2.733470   4.936704
    36  H    7.878265   5.685137   2.733596   4.026221   9.481659
    37  H    8.414233   7.965842   7.878019   8.414245   8.522458
                   31         32         33         34         35
    31  H    0.000000
    32  H    7.485224   0.000000
    33  H    5.331149   2.696927   0.000000
    34  H    4.936765   9.481665   8.522643   0.000000
    35  H    2.665985   4.936694   2.665971   6.401282   0.000000
    36  H    8.522654   2.666060   4.936797   9.053158   6.401291
    37  H    9.481234   8.522484   9.481245   6.401320   9.052454
                   36         37
    36  H    0.000000
    37  H    6.401309   0.000000
 Symmetry turned off by external request.
 Stoichiometry    C20H12N4Zn
 Framework group  C1[X(C20H12N4Zn)]
 Deg. of freedom   105
 Full point group                 C1      NOp   1
 Rotational constants (GHZ):      0.2646117      0.2645914      0.1323008
 Leave Link  202 at Tue Feb 11 11:55:44 2014, MaxMem= 3221225472 cpu:       0.1
 (Enter /opt/chemistry/nbo//g09/l301.exe)
 General basis read from cards:  (5D, 7F)
 Centers:  11
 S 1 1.00
     Exponent=  7.9970000000D-01 Coefficients=  1.0000000000D+00
 S 1 1.00
     Exponent=  1.7520000000D-01 Coefficients=  1.0000000000D+00
 S 1 1.00
     Exponent=  5.5600000000D-02 Coefficients=  1.0000000000D+00
 P 1 1.00
     Exponent=  1.2020000000D-01 Coefficients=  1.0000000000D+00
 P 1 1.00
     Exponent=  3.5100000000D-02 Coefficients=  1.0000000000D+00
 D 1 1.00
     Exponent=  6.8850000000D+01 Coefficients=  1.0000000000D+00
 D 1 1.00
     Exponent=  1.8320000000D+01 Coefficients=  1.0000000000D+00
 D 1 1.00
     Exponent=  5.9220000000D+00 Coefficients=  1.0000000000D+00
 D 1 1.00
     Exponent=  1.9270000000D+00 Coefficients=  1.0000000000D+00
 D 1 1.00
     Exponent=  5.5280000000D-01 Coefficients=  1.0000000000D+00
 ****
 Centers:   1  2  3  4  6  8 10 12 14 16 20 21 22 23 24 25 26 27 28 29
 Centers:   9 13 15 19 30 31 32 33 34 35 36 37  5  7 17 18
 6-31G*
 ****
 Ernie: Thresh=  0.10000D-02 Tol=  0.10000D-05 Strict=F.
 ======================================================================================================
                                       Pseudopotential Parameters
 ======================================================================================================
  Center     Atomic      Valence      Angular      Power
  Number     Number     Electrons     Momentum     of R      Exponent        Coefficient   SO-Coeffient
 ======================================================================================================
    1          6
                                   No pseudopotential on this center.
    2          6
                                   No pseudopotential on this center.
    3          6
                                   No pseudopotential on this center.
    4          6
                                   No pseudopotential on this center.
    5          7
                                   No pseudopotential on this center.
    6          6
                                   No pseudopotential on this center.
    7          7
                                   No pseudopotential on this center.
    8          6
                                   No pseudopotential on this center.
    9          1
                                   No pseudopotential on this center.
   10          6
                                   No pseudopotential on this center.
   11         30           12
                                      F and up 
                                                     1      386.7379660      -18.00000000    0.00000000
                                                     2       72.8587359     -124.35274030    0.00000000
                                                     2       15.9066170      -30.66018220    0.00000000
                                                     2        4.3502340      -10.63589890    0.00000000
                                                     2        1.2842199       -0.76836230    0.00000000
                                      S - F
                                                     0       19.0867858        3.00000000    0.00000000
                                                     1        5.0231080       22.52342250    0.00000000
                                                     2        1.2701744       48.44659420    0.00000000
                                                     2        1.0671287      -44.55601190    0.00000000
                                                     2        0.9264190       12.99839580    0.00000000
                                      P - F
                                                     0       43.4927750        5.00000000    0.00000000
                                                     1       20.8692669       20.74355890    0.00000000
                                                     2       21.7118378       90.30271580    0.00000000
                                                     2        6.3616915       74.66103160    0.00000000
                                                     2        1.2291195        9.88944240    0.00000000
                                      D - F
                                                     2       13.5851800       -4.84903590    0.00000000
                                                     2        9.8373050        3.69133790    0.00000000
                                                     2        0.8373113       -0.50373190    0.00000000
   12          6
                                   No pseudopotential on this center.
   13          1
                                   No pseudopotential on this center.
   14          6
                                   No pseudopotential on this center.
   15          1
                                   No pseudopotential on this center.
   16          6
                                   No pseudopotential on this center.
   17          7
                                   No pseudopotential on this center.
   18          7
                                   No pseudopotential on this center.
   19          1
                                   No pseudopotential on this center.
   20          6
                                   No pseudopotential on this center.
   21          6
                                   No pseudopotential on this center.
   22          6
                                   No pseudopotential on this center.
   23          6
                                   No pseudopotential on this center.
   24          6
                                   No pseudopotential on this center.
   25          6
                                   No pseudopotential on this center.
   26          6
                                   No pseudopotential on this center.
   27          6
                                   No pseudopotential on this center.
   28          6
                                   No pseudopotential on this center.
   29          6
                                   No pseudopotential on this center.
   30          1
                                   No pseudopotential on this center.
   31          1
                                   No pseudopotential on this center.
   32          1
                                   No pseudopotential on this center.
   33          1
                                   No pseudopotential on this center.
   34          1
                                   No pseudopotential on this center.
   35          1
                                   No pseudopotential on this center.
   36          1
                                   No pseudopotential on this center.
   37          1
                                   No pseudopotential on this center.
 ======================================================================================================
 Integral buffers will be    131072 words long.
 Raffenetti 2 integral format.
 Two-electron integral symmetry is turned off.
   394 basis functions,   759 primitive gaussians,   423 cartesian basis functions
    86 alpha electrons       86 beta electrons
       nuclear repulsion energy      2110.7348504014 Hartrees.
 IExCor=  402 DFT=T Ex+Corr=B3LYP ExCW=0 ScaHFX=  0.200000
 ScaDFX=  0.800000  0.720000  1.000000  0.810000 ScalE2=  1.000000  1.000000
 IRadAn=      0 IRanWt=     -1 IRanGd=            0 ICorTp=0
 NAtoms=   37 NActive=   37 NUniq=   37 SFac= 1.00D+00 NAtFMM=   50 NAOKFM=F Big=F
 Leave Link  301 at Tue Feb 11 11:55:44 2014, MaxMem= 3221225472 cpu:       1.1
 (Enter /opt/chemistry/nbo//g09/l302.exe)
 NPDir=0 NMtPBC=     1 NCelOv=     1 NCel=       1 NClECP=     1 NCelD=      1
         NCelK=      1 NCelE2=     1 NClLst=     1 CellRange=     0.0.
 One-electron integrals computed using PRISM.
   1 Symmetry operations used in ECPInt.
 ECPInt:  NShTT=    8515 NPrTT=   52471 LenC2=    7494 LenP2D=   26273.
 LDataN:  DoStor=T MaxTD1= 5 Len=  102
 NBasis=   394 RedAO= T  NBF=   394
 NBsUse=   394 1.00D-06 NBFU=   394
 Precomputing XC quadrature grid using
 IXCGrd= 2 IRadAn=           0 IRanWt=          -1 IRanGd=           0 AccXCQ= 0.00D+00.
 NRdTot=    2378 NPtTot=      307280 NUsed=      324420 NTot=      324452
 NSgBfM=   407   407   407   407   407 NAtAll=    37    37.
 Leave Link  302 at Tue Feb 11 11:55:46 2014, MaxMem= 3221225472 cpu:      21.0
 (Enter /opt/chemistry/nbo//g09/l308.exe)
 Leave Link  308 at Tue Feb 11 11:55:47 2014, MaxMem= 3221225472 cpu:       2.3
 (Enter /opt/chemistry/nbo//g09/l303.exe)
 DipDrv:  MaxL=1.
 Leave Link  303 at Tue Feb 11 11:55:48 2014, MaxMem= 3221225472 cpu:       1.9
 (Enter /opt/chemistry/nbo//g09/l401.exe)
 Initial guess read from the checkpoint file:  znp.chk
 B after Tr=     0.000000    0.000000    0.000000
         Rot=    1.000000    0.000000    0.000000    0.000000 Ang=   0.00 deg.
 Guess basis will be translated and rotated to current coordinates.
 Leave Link  401 at Tue Feb 11 11:55:50 2014, MaxMem= 3221225472 cpu:      23.3
 (Enter /opt/chemistry/nbo//g09/l502.exe)
 Closed shell SCF:
 Requested convergence on RMS density matrix=1.00D-08 within 128 cycles.
 Requested convergence on MAX density matrix=1.00D-06.
 Requested convergence on             energy=1.00D-06.
 No special actions if energy rises.
 Using DIIS extrapolation, IDIIS=  1040.
 Two-electron integral symmetry not used.
       324074 words used for storage of precomputed grid.
 IEnd=      886695 IEndB=      886695 NGot=  3221225472 MDV=  3220534770
 LenX=  3220534770 LenY=  3220355400
 Fock matrices will be formed incrementally for  20 cycles.

 Cycle   1  Pass 1  IDiag  1:
 FoFCou: FMM=F IPFlag=           0 FMFlag=      100000 FMFlg1=           0
         NFxFlg=           0 DoJE=F BraDBF=F KetDBF=F FulRan=T
         Omega=  0.000000  0.000000  1.000000  0.000000  0.000000 ICntrl=       0 IOpCl=  0
         NMat0=    1 NMatS0=    1 NMatT0=    0 NMatD0=    1 NMtDS0=    0 NMtDT0=    0
         I1Cent=           0 NGrid=           0.
 Symmetry not used in FoFCou.
 E= -1054.02255619322    
 DIIS: error= 7.93D-09 at cycle   1 NSaved=   1.
 NSaved= 1 IEnMin= 1 EnMin= -1054.02255619322     IErMin= 1 ErrMin= 7.93D-09
 ErrMax= 7.93D-09 EMaxC= 1.00D-01 BMatC= 6.65D-15 BMatP= 6.65D-15
 IDIUse=1 WtCom= 1.00D+00 WtEn= 0.00D+00
 Coeff-Com:  0.100D+01
 Coeff:      0.100D+01
 Gap=     0.111 Goal=   None    Shift=    0.000
 RMSDP=2.28D-09 MaxDP=2.87D-08              OVMax= 4.88D-08

 SCF Done:  E(RB3LYP) =  -1054.02255619     A.U. after    1 cycles
             Convg  =    0.2278D-08             -V/T =  1.9605
 KE= 1.097420400069D+03 PE=-6.753910602266D+03 EE= 2.491732795603D+03
 Leave Link  502 at Tue Feb 11 11:56:04 2014, MaxMem= 3221225472 cpu:     176.7
 (Enter /opt/chemistry/nbo//g09/l801.exe)
 ExpMin= 3.51D-02 ExpMax= 4.17D+03 ExpMxC= 6.27D+02 IAcc=3 IRadAn=         5 AccDes= 0.00D+00
 HarFok:  IExCor=  205 AccDes= 0.00D+00 IRadAn=         5 IDoV=-2
 ScaDFX=  1.000000  1.000000  1.000000  1.000000
 Largest valence mixing into a core orbital is  5.15D-05
 Largest core mixing into a valence orbital is  3.44D-05
 Range of M.O.s used for correlation:    25   394
 NBasis=   394 NAE=    86 NBE=    86 NFC=    24 NFV=     0
 NROrb=    370 NOA=    62 NOB=    62 NVA=   308 NVB=   308
 Leave Link  801 at Tue Feb 11 11:56:07 2014, MaxMem= 3221225472 cpu:      14.9
 (Enter /opt/chemistry/nbo//g09/l914.exe)
 RHF ground state
 MDV=  3221225472 DFT=T DoStab=F Mixed=T DoRPA=T DoScal=F NonHer=T
 Would need an additional  8911500000 words for in-memory AO integral storage.
 Making orbital integer symmetry assigments:
 Restoring state from the checkpoint file.
   20 states for AA,BB on restart file.
    10 initial guesses have been made.
 Convergence on wavefunction:    0.001000000000000
 Davidson Disk Diagonalization:  ConvIn= 1.00D-03 SkipCon=T Conv= 1.00D-03.
 Max sub-space:   200 roots to seek:    30 dimension of matrix:  38192
 Iteration     1 Dimension    50 NMult    50
 CISAX:  IP= 12 NPass=   1 NMax=    50.
 CISAX will form    50 AO SS matrices at one time.
 NMat=    50 NSing=    50.
 Symmetry not used in FoFDir.
 MinBra= 0 MaxBra= 2 Meth= 1.
 IRaf=       0 NMat=  50 IRICut=     125 DoRegI=T DoRafI=T ISym2E= 0 JSym2E=0.
 CISAX:  IP= 12 NPass=   1 NMax=    50.
 CISAX will form    50 AO SS matrices at one time.
 NMat=    50 NSing=    50.
 New state      3 was old state      4
 New state      4 was old state      3
 New state      7 was old state      8
 New state      8 was old state      7
 New state     21 was old state     22
 New state     22 was old state     23
 New state     23 was old state     28
 New state     24 was old state     27
 New state     25 was old state     24
 New state     26 was old state     25
 New state     27 was old state     26
 New state     28 was old state     30
 No map to state     30
 Excitation Energies [eV] at current iteration:
 Root      1 :     2.416296900200278
 Root      2 :     2.418595580252572
 Root      3 :     3.524785132151910
 Root      4 :     3.525522083088649
 Root      5 :     3.738009182275242
 Root      6 :     3.780877264475425
 Root      7 :     3.820014365262721
 Root      8 :     3.820862403731709
 Root      9 :     3.907611893548600
 Root     10 :     3.943444686653570
 Root     11 :     3.943682889922286
 Root     12 :     3.991393500235058
 Root     13 :     4.142319239429200
 Root     14 :     4.256575407341174
 Root     15 :     4.257322374585491
 Root     16 :     4.257963934456321
 Root     17 :     4.665141823345871
 Root     18 :     4.837641231176238
 Root     19 :     5.134643270758440
 Root     20 :     5.207405406997796
 Root     21 :     5.307272090894721
 Root     22 :     5.464109351908759
 Root     23 :     5.485626034261108
 Root     24 :     5.486339259056653
 Root     25 :     5.505797268293269
 Root     26 :     5.506217569349134
 Root     27 :     5.506781810412324
 Root     28 :     5.536982600426673
 Root     29 :     5.563496397951024
 Root     30 :     8.807697600613663
 Iteration     2 Dimension   110 NMult   110
 CISAX:  IP= 12 NPass=   1 NMax=    60.
 CISAX will form    60 AO SS matrices at one time.
 NMat=    60 NSing=    60.
 CISAX:  IP= 12 NPass=   1 NMax=    60.
 CISAX will form    60 AO SS matrices at one time.
 NMat=    60 NSing=    60.
 Root      1 not converged, maximum delta is    0.004384988074433
 Root      2 not converged, maximum delta is    0.008057041901305
 New state      3 was old state      4
 Root      3 not converged, maximum delta is    0.012375227316897
 New state      4 was old state      3
 Root      4 not converged, maximum delta is    0.012396506122207
 Root      5 not converged, maximum delta is    0.002758018132965
 Root      6 not converged, maximum delta is    0.004508574195706
 New state      7 was old state      8
 Root      7 not converged, maximum delta is    0.024391023554368
 New state      8 was old state      7
 Root      8 not converged, maximum delta is    0.024384096343451
 Root      9 not converged, maximum delta is    0.005209571271958
 Root     10 not converged, maximum delta is    0.011568598587627
 Root     11 not converged, maximum delta is    0.011567795625755
 Root     12 not converged, maximum delta is    0.005547896865381
 Root     13 not converged, maximum delta is    0.002958967579292
 Root     14 not converged, maximum delta is    0.003301633534714
 Root     15 not converged, maximum delta is    0.004255371577676
 Root     16 not converged, maximum delta is    0.003907976831367
 Root     17 not converged, maximum delta is    0.005310031093096
 Root     18 not converged, maximum delta is    0.007819227191688
 Root     19 not converged, maximum delta is    0.005381139123668
 Root     20 not converged, maximum delta is    0.002258204661478
 Root     21 not converged, maximum delta is    0.032217375631451
 New state     22 was old state     24
 Root     22 not converged, maximum delta is    0.361503762747859
 New state     23 was old state     22
 Root     23 not converged, maximum delta is    0.032666040641565
 New state     24 was old state     23
 Root     24 not converged, maximum delta is    0.044847413268598
 New state     25 was old state     27
 Root     25 not converged, maximum delta is    0.106252839149041
 New state     26 was old state     25
 Root     26 not converged, maximum delta is    0.325254939889464
 New state     27 was old state     26
 Root     27 not converged, maximum delta is    0.325206281079601
 Root     28 not converged, maximum delta is    0.027114785456778
 Root     29 not converged, maximum delta is    0.150292303455557
 No map to state     30
 Excitation Energies [eV] at current iteration:
 Root      1 :     2.414494605912229   Change is   -0.001802294288048
 Root      2 :     2.414580559595858   Change is   -0.004015020656714
 Root      3 :     3.522831735149375   Change is   -0.002690347939274
 Root      4 :     3.522918075235719   Change is   -0.001867056916191
 Root      5 :     3.737457359239533   Change is   -0.000551823035709
 Root      6 :     3.779310855588064   Change is   -0.001566408887362
 Root      7 :     3.819146412373890   Change is   -0.001715991357820
 Root      8 :     3.819347517797579   Change is   -0.000666847465142
 Root      9 :     3.906725633026283   Change is   -0.000886260522317
 Root     10 :     3.943124494565280   Change is   -0.000320192088290
 Root     11 :     3.943348695805190   Change is   -0.000334194117097
 Root     12 :     3.989021637520386   Change is   -0.002371862714673
 Root     13 :     4.141429595704997   Change is   -0.000889643724203
 Root     14 :     4.255610855230006   Change is   -0.000964552111167
 Root     15 :     4.256472780963084   Change is   -0.000849593622407
 Root     16 :     4.256696264951298   Change is   -0.001267669505023
 Root     17 :     4.662708060572853   Change is   -0.002433762773017
 Root     18 :     4.834566565237759   Change is   -0.003074665938479
 Root     19 :     5.132696234442458   Change is   -0.001947036315983
 Root     20 :     5.206956275948945   Change is   -0.000449131048852
 Root     21 :     5.280532189097374   Change is   -0.026739901797348
 Root     22 :     5.323381794209118   Change is   -0.162957464847535
 Root     23 :     5.447006857065215   Change is   -0.017102494843543
 Root     24 :     5.458862561303259   Change is   -0.026763472957848
 Root     25 :     5.482840695176249   Change is   -0.023941115236075
 Root     26 :     5.487135323321755   Change is   -0.018661944971514
 Root     27 :     5.487167626346582   Change is   -0.019049943002552
 Root     28 :     5.499716983198740   Change is   -0.037265617227933
 Root     29 :     5.516669451591411   Change is   -0.046826946359613
 Root     30 :     5.880676094409903
 Iteration     3 Dimension   170 NMult   170
 CISAX:  IP= 12 NPass=   1 NMax=    60.
 CISAX will form    60 AO SS matrices at one time.
 NMat=    60 NSing=    60.
 CISAX:  IP= 12 NPass=   1 NMax=    60.
 CISAX will form    60 AO SS matrices at one time.
 NMat=    60 NSing=    60.
 Root      1 not converged, maximum delta is    0.041642745561233
 Root      2 not converged, maximum delta is    0.041645043675415
 Root      3 not converged, maximum delta is    0.002768898883712
 Root      4 not converged, maximum delta is    0.002768057146430
 Root      5 has converged.
 Root      6 has converged.
 Root      7 not converged, maximum delta is    0.005181319554019
 Root      8 not converged, maximum delta is    0.005180650025314
 Root      9 has converged.
 Root     10 has converged.
 Root     11 has converged.
 Root     12 has converged.
 Root     13 has converged.
 Root     14 has converged.
 Root     15 has converged.
 Root     16 has converged.
 Root     17 has converged.
 Root     18 has converged.
 Root     19 has converged.
 Root     20 has converged.
 Root     21 not converged, maximum delta is    0.005112630804845
 Root     22 not converged, maximum delta is    0.040362732690127
 No map to state     23
 New state     24 was old state     23
 Root     24 not converged, maximum delta is    0.005435831621341
 New state     25 was old state     24
 Root     25 not converged, maximum delta is    0.001960811425475
 New state     26 was old state     25
 Root     26 not converged, maximum delta is    0.010457879141659
 New state     27 was old state     26
 Root     27 not converged, maximum delta is    0.089577747241249
 New state     28 was old state     27
 Root     28 not converged, maximum delta is    0.089591471978998
 New state     29 was old state     28
 Root     29 not converged, maximum delta is    0.003452775835328
 New state     30 was old state     29
 Root     30 not converged, maximum delta is    0.014652433848751
 Excitation Energies [eV] at current iteration:
 Root      1 :     2.414474270655413   Change is   -0.000020335256817
 Root      2 :     2.414495685392059   Change is   -0.000084874203800
 Root      3 :     3.522803948254799   Change is   -0.000027786894576
 Root      4 :     3.522902684359339   Change is   -0.000015390876381
 Root      5 :     3.737456295787678   Change is   -0.000001063451855
 Root      6 :     3.779299422540068   Change is   -0.000011433047996
 Root      7 :     3.819118383187087   Change is   -0.000028029186803
 Root      8 :     3.819333473787702   Change is   -0.000014044009877
 Root      9 :     3.906720573091518   Change is   -0.000005059934765
 Root     10 :     3.943122672851454   Change is   -0.000001821713827
 Root     11 :     3.943344111741967   Change is   -0.000004584063224
 Root     12 :     3.988954407898675   Change is   -0.000067229621710
 Root     13 :     4.141406033884422   Change is   -0.000023561820575
 Root     14 :     4.255606035304746   Change is   -0.000004819925260
 Root     15 :     4.256458368297079   Change is   -0.000014412666004
 Root     16 :     4.256661871713761   Change is   -0.000034393237538
 Root     17 :     4.662692884248322   Change is   -0.000015176324531
 Root     18 :     4.834509824651214   Change is   -0.000056740586545
 Root     19 :     5.132670362941449   Change is   -0.000025871501010
 Root     20 :     5.206948303249871   Change is   -0.000007972699073
 Root     21 :     5.279479641161352   Change is   -0.001052547936022
 Root     22 :     5.309289863987856   Change is   -0.014091930221262
 Root     23 :     5.329107645972077
 Root     24 :     5.446601392753782   Change is   -0.000405464311434
 Root     25 :     5.458352497221949   Change is   -0.000510064081311
 Root     26 :     5.481882750742407   Change is   -0.000957944433843
 Root     27 :     5.485886684830761   Change is   -0.001248638490994
 Root     28 :     5.485922909084222   Change is   -0.001244717262360
 Root     29 :     5.498275155895659   Change is   -0.001441827303082
 Root     30 :     5.514342419706352   Change is   -0.002327031885059
 Davidson failed to converge within maximum sub-space dimensions.
  Restart with updated initial guess:
 Iteration     1 Dimension    92 NMult   262
 CISAX:  IP= 12 NPass=   1 NMax=    92.
 CISAX will form    92 AO SS matrices at one time.
 NMat=    92 NSing=    92.
 CISAX:  IP= 12 NPass=   1 NMax=    92.
 CISAX will form    92 AO SS matrices at one time.
 NMat=    92 NSing=    92.
 New state     22 was old state     23
 New state     23 was old state     22
 Excitation Energies [eV] at current iteration:
 Root      1 :     2.414473805756796
 Root      2 :     2.414494000661264
 Root      3 :     3.522803274852136
 Root      4 :     3.522902276358793
 Root      5 :     3.737456292791116
 Root      6 :     3.779299359248304
 Root      7 :     3.819117667115325
 Root      8 :     3.819333169331773
 Root      9 :     3.906720558698799
 Root     10 :     3.943122672753436
 Root     11 :     3.943344111622948
 Root     12 :     3.988954253442310
 Root     13 :     4.141405967959320
 Root     14 :     4.255606003673013
 Root     15 :     4.256458033446182
 Root     16 :     4.256661200837466
 Root     17 :     4.662692057464335
 Root     18 :     4.834509726680707
 Root     19 :     5.132670346660114
 Root     20 :     5.206948213657494
 Root     21 :     5.279439397669327
 Root     22 :     5.299392605144522
 Root     23 :     5.308986644186694
 Root     24 :     5.446595091557930
 Root     25 :     5.458312707863190
 Root     26 :     5.481806861443135
 Root     27 :     5.485810521588075
 Root     28 :     5.485842527831778
 Root     29 :     5.498178860521310
 Root     30 :     5.514195615286852
 Iteration     2 Dimension   152 NMult   322
 CISAX:  IP= 12 NPass=   1 NMax=    60.
 CISAX will form    60 AO SS matrices at one time.
 NMat=    60 NSing=    60.
 CISAX:  IP= 12 NPass=   1 NMax=    60.
 CISAX will form    60 AO SS matrices at one time.
 NMat=    60 NSing=    60.
 Root      1 has converged.
 Root      2 has converged.
 Root      3 has converged.
 Root      4 has converged.
 Root      5 has converged.
 Root      6 has converged.
 Root      7 has converged.
 Root      8 has converged.
 Root      9 has converged.
 Root     10 has converged.
 Root     11 has converged.
 Root     12 has converged.
 Root     13 has converged.
 Root     14 has converged.
 Root     15 has converged.
 Root     16 has converged.
 Root     17 has converged.
 Root     18 has converged.
 Root     19 has converged.
 Root     20 has converged.
 Root     21 has converged.
 Root     22 not converged, maximum delta is    0.017902355334800
 Root     23 not converged, maximum delta is    0.002474445843211
 Root     24 has converged.
 Root     25 has converged.
 Root     26 has converged.
 Root     27 not converged, maximum delta is    0.016170407460748
 Root     28 not converged, maximum delta is    0.016165005200520
 Root     29 has converged.
 Root     30 not converged, maximum delta is    0.001317664290722
 Excitation Energies [eV] at current iteration:
 Root      1 :     2.414473743446539   Change is   -0.000000062310257
 Root      2 :     2.414493872723491   Change is   -0.000000127937773
 Root      3 :     3.522803124643725   Change is   -0.000000150208411
 Root      4 :     3.522902189416035   Change is   -0.000000086942758
 Root      5 :     3.737456262145170   Change is   -0.000000030645946
 Root      6 :     3.779299049537860   Change is   -0.000000309710444
 Root      7 :     3.819117519283685   Change is   -0.000000147831640
 Root      8 :     3.819333080055078   Change is   -0.000000089276695
 Root      9 :     3.906720343604117   Change is   -0.000000215094682
 Root     10 :     3.943122581739905   Change is   -0.000000091013531
 Root     11 :     3.943343968845928   Change is   -0.000000142777020
 Root     12 :     3.988952058695065   Change is   -0.000002194747245
 Root     13 :     4.141405170964182   Change is   -0.000000796995138
 Root     14 :     4.255605763165676   Change is   -0.000000240507337
 Root     15 :     4.256457833491443   Change is   -0.000000199954739
 Root     16 :     4.256660793212506   Change is   -0.000000407624961
 Root     17 :     4.662687980972459   Change is   -0.000004076491876
 Root     18 :     4.834506643443379   Change is   -0.000003083237328
 Root     19 :     5.132669102756026   Change is   -0.000001243904088
 Root     20 :     5.206947265230268   Change is   -0.000000948427225
 Root     21 :     5.279424751068087   Change is   -0.000014646601240
 Root     22 :     5.288890475687161   Change is   -0.010502129457361
 Root     23 :     5.308837788758684   Change is   -0.000148855428011
 Root     24 :     5.446590537184388   Change is   -0.000004554373541
 Root     25 :     5.458292651349307   Change is   -0.000020056513883
 Root     26 :     5.481766621212349   Change is   -0.000040240230786
 Root     27 :     5.485744905915507   Change is   -0.000065615672567
 Root     28 :     5.485778556236336   Change is   -0.000063971595442
 Root     29 :     5.498127256217639   Change is   -0.000051604303670
 Root     30 :     5.514086141285604   Change is   -0.000109474001247
 Iteration     3 Dimension   162 NMult   332
 CISAX:  IP=  1 NPass=   1 NMax=    10.
 CISAX will form    10 AO SS matrices at one time.
 NMat=    10 NSing=    10.
 CISAX:  IP=  1 NPass=   1 NMax=    10.
 CISAX will form    10 AO SS matrices at one time.
 NMat=    10 NSing=    10.
 Root      1 has converged.
 Root      2 has converged.
 Root      3 has converged.
 Root      4 has converged.
 Root      5 has converged.
 Root      6 has converged.
 Root      7 has converged.
 Root      8 has converged.
 Root      9 has converged.
 Root     10 has converged.
 Root     11 has converged.
 Root     12 has converged.
 Root     13 has converged.
 Root     14 has converged.
 Root     15 has converged.
 Root     16 has converged.
 Root     17 has converged.
 Root     18 has converged.
 Root     19 has converged.
 Root     20 has converged.
 Root     21 has converged.
 Root     22 not converged, maximum delta is    0.004085768007101
 Root     23 has converged.
 Root     24 has converged.
 Root     25 has converged.
 Root     26 has converged.
 Root     27 not converged, maximum delta is    0.009103037008639
 Root     28 not converged, maximum delta is    0.009105197110331
 Root     29 has converged.
 Root     30 has converged.
 Excitation Energies [eV] at current iteration:
 Root      1 :     2.414473743240737   Change is   -0.000000000205802
 Root      2 :     2.414493872182696   Change is   -0.000000000540795
 Root      3 :     3.522803124052130   Change is   -0.000000000591594
 Root      4 :     3.522902189188288   Change is   -0.000000000227746
 Root      5 :     3.737456261980659   Change is   -0.000000000164511
 Root      6 :     3.779299045320380   Change is   -0.000000004217479
 Root      7 :     3.819117518358188   Change is   -0.000000000925497
 Root      8 :     3.819333079493050   Change is   -0.000000000562028
 Root      9 :     3.906720343376151   Change is   -0.000000000227965
 Root     10 :     3.943122581688037   Change is   -0.000000000051868
 Root     11 :     3.943343968795260   Change is   -0.000000000050668
 Root     12 :     3.988952013454945   Change is   -0.000000045240120
 Root     13 :     4.141405144619230   Change is   -0.000000026344952
 Root     14 :     4.255605750703217   Change is   -0.000000012462459
 Root     15 :     4.256457831243633   Change is   -0.000000002247810
 Root     16 :     4.256660787666272   Change is   -0.000000005546234
 Root     17 :     4.662687914072553   Change is   -0.000000066899906
 Root     18 :     4.834506578603107   Change is   -0.000000064840272
 Root     19 :     5.132669082139849   Change is   -0.000000020616178
 Root     20 :     5.206947257838810   Change is   -0.000000007391458
 Root     21 :     5.279424705884395   Change is   -0.000000045183692
 Root     22 :     5.288367489893434   Change is   -0.000522985793726
 Root     23 :     5.308811554299869   Change is   -0.000026234458815
 Root     24 :     5.446590535333601   Change is   -0.000000001850787
 Root     25 :     5.458292650252036   Change is   -0.000000001097270
 Root     26 :     5.481765118161233   Change is   -0.000001503051116
 Root     27 :     5.485732967319903   Change is   -0.000011938595604
 Root     28 :     5.485767352400338   Change is   -0.000011203835997
 Root     29 :     5.498127242497282   Change is   -0.000000013720357
 Root     30 :     5.514075484574771   Change is   -0.000010656710834
 Iteration     4 Dimension   168 NMult   338
 CISAX:  IP=  1 NPass=   1 NMax=     6.
 CISAX will form     6 AO SS matrices at one time.
 NMat=     6 NSing=     6.
 CISAX:  IP=  1 NPass=   1 NMax=     6.
 CISAX will form     6 AO SS matrices at one time.
 NMat=     6 NSing=     6.
 Root      1 has converged.
 Root      2 has converged.
 Root      3 has converged.
 Root      4 has converged.
 Root      5 has converged.
 Root      6 has converged.
 Root      7 has converged.
 Root      8 has converged.
 Root      9 has converged.
 Root     10 has converged.
 Root     11 has converged.
 Root     12 has converged.
 Root     13 has converged.
 Root     14 has converged.
 Root     15 has converged.
 Root     16 has converged.
 Root     17 has converged.
 Root     18 has converged.
 Root     19 has converged.
 Root     20 has converged.
 Root     21 has converged.
 Root     22 has converged.
 Root     23 has converged.
 Root     24 has converged.
 Root     25 has converged.
 Root     26 has converged.
 Root     27 has converged.
 Root     28 has converged.
 Root     29 has converged.
 Root     30 has converged.
 Excitation Energies [eV] at current iteration:
 Root      1 :     2.414473742920122   Change is   -0.000000000320615
 Root      2 :     2.414493871856325   Change is   -0.000000000326372
 Root      3 :     3.522803122633853   Change is   -0.000000001418278
 Root      4 :     3.522902188982950   Change is   -0.000000000205338
 Root      5 :     3.737456261949430   Change is   -0.000000000031230
 Root      6 :     3.779299044040333   Change is   -0.000000001280048
 Root      7 :     3.819117518189273   Change is   -0.000000000168915
 Root      8 :     3.819333078706594   Change is   -0.000000000786456
 Root      9 :     3.906720342999610   Change is   -0.000000000376542
 Root     10 :     3.943122581625931   Change is   -0.000000000062106
 Root     11 :     3.943343968726416   Change is   -0.000000000068844
 Root     12 :     3.988952000671680   Change is   -0.000000012783265
 Root     13 :     4.141405138871670   Change is   -0.000000005747560
 Root     14 :     4.255605750194094   Change is   -0.000000000509124
 Root     15 :     4.256457827047763   Change is   -0.000000004195870
 Root     16 :     4.256660785146464   Change is   -0.000000002519807
 Root     17 :     4.662687852976407   Change is   -0.000000061096146
 Root     18 :     4.834506552600327   Change is   -0.000000026002780
 Root     19 :     5.132669081275632   Change is   -0.000000000864216
 Root     20 :     5.206947254540411   Change is   -0.000000003298400
 Root     21 :     5.279424699629520   Change is   -0.000000006254874
 Root     22 :     5.288305842165423   Change is   -0.000061647728011
 Root     23 :     5.308811478144697   Change is   -0.000000076155172
 Root     24 :     5.446590533465219   Change is   -0.000000001868382
 Root     25 :     5.458292650139693   Change is   -0.000000000112344
 Root     26 :     5.481765116994843   Change is   -0.000000001166389
 Root     27 :     5.485730496867107   Change is   -0.000002470452796
 Root     28 :     5.485765913411511   Change is   -0.000001438988828
 Root     29 :     5.498127237671169   Change is   -0.000000004826113
 Root     30 :     5.514075483832734   Change is   -0.000000000742036
 Convergence achieved on expansion vectors.
 ***********************************************************************
 Excited states from <AA,BB:AA,BB> singles matrix:
 ***********************************************************************
 
 1PDM for each excited state written to RWF  633
 Ground to excited state transition densities written to RWF  633
 Ground to excited state transition electric dipole moments (Au):
       state          X           Y           Z        Dip. S.      Osc.
         1         0.0132      0.0816     -0.1127      0.0195      0.0012
         2        -0.1399      0.0070     -0.0112      0.0197      0.0012
         3         3.2048      0.0857     -0.0838     10.2851      0.8877
         4        -0.1181      1.8799     -2.5961     10.2875      0.8879
         5         0.0000      0.0008     -0.0012      0.0000      0.0000
         6         0.0017      0.0000      0.0001      0.0000      0.0000
         7         0.7973     -0.0043      0.0145      0.6360      0.0595
         8        -0.0145     -0.4676      0.6451      0.6349      0.0594
         9         0.0001      0.0003     -0.0005      0.0000      0.0000
        10         0.0001     -0.0064      0.0088      0.0001      0.0000
        11         0.0109      0.0001      0.0000      0.0001      0.0000
        12        -0.0008      0.0000      0.0000      0.0000      0.0000
        13         0.0001      0.0000      0.0000      0.0000      0.0000
        14         0.0008      0.0006     -0.0009      0.0000      0.0000
        15        -0.0354      0.8200     -1.1324      1.9560      0.2040
        16        -1.3976     -0.0279      0.0235      1.9547      0.2039
        17         0.0000      0.0001     -0.0001      0.0000      0.0000
        18         0.0001      0.0000      0.0000      0.0000      0.0000
        19         0.0000      0.0000      0.0001      0.0000      0.0000
        20         0.0000      0.0000      0.0000      0.0000      0.0000
        21         0.0000      0.0001     -0.0001      0.0000      0.0000
        22         0.0001      0.0000      0.0000      0.0000      0.0000
        23        -0.0006     -0.0001      0.0001      0.0000      0.0000
        24        -0.0001      0.0010     -0.0014      0.0000      0.0000
        25        -0.0002      0.0010      0.0005      0.0000      0.0000
        26        -0.0020      0.2036      0.1507      0.0642      0.0086
        27         0.2438      0.4318     -0.5919      0.5962      0.0801
        28         0.7329     -0.1394      0.2000      0.5966      0.0802
        29        -0.0001      0.0000      0.0000      0.0000      0.0000
        30        -0.0003      0.0382      0.0269      0.0022      0.0003
 Ground to excited state transition velocity dipole moments (Au):
       state          X           Y           Z        Dip. S.      Osc.
         1        -0.0015     -0.0092      0.0127      0.0002      0.0019
         2         0.0158     -0.0008      0.0013      0.0003      0.0019
         3        -0.3981     -0.0106      0.0104      0.1587      0.8174
         4         0.0147     -0.2335      0.3225      0.1588      0.8176
         5         0.0000     -0.0001      0.0002      0.0000      0.0000
         6        -0.0002      0.0000      0.0000      0.0000      0.0000
         7        -0.1110      0.0006     -0.0020      0.0123      0.0586
         8         0.0020      0.0651     -0.0899      0.0123      0.0585
         9         0.0000      0.0000      0.0001      0.0000      0.0000
        10         0.0000      0.0009     -0.0012      0.0000      0.0000
        11        -0.0015      0.0000      0.0000      0.0000      0.0000
        12         0.0001      0.0000      0.0000      0.0000      0.0000
        13         0.0000      0.0000      0.0000      0.0000      0.0000
        14        -0.0001     -0.0001      0.0001      0.0000      0.0000
        15         0.0054     -0.1239      0.1711      0.0447      0.1903
        16         0.2112      0.0042     -0.0035      0.0446      0.1902
        17         0.0000      0.0000      0.0000      0.0000      0.0000
        18         0.0000      0.0000      0.0000      0.0000      0.0000
        19         0.0000      0.0000      0.0000      0.0000      0.0000
        20         0.0000      0.0000      0.0000      0.0000      0.0000
        21         0.0000      0.0000      0.0000      0.0000      0.0000
        22         0.0000      0.0000      0.0000      0.0000      0.0000
        23         0.0001      0.0000      0.0000      0.0000      0.0000
        24         0.0000     -0.0002      0.0003      0.0000      0.0000
        25         0.0000     -0.0003     -0.0002      0.0000      0.0000
        26         0.0006     -0.0673     -0.0494      0.0070      0.0230
        27        -0.0488     -0.0866      0.1185      0.0239      0.0791
        28        -0.1469      0.0280     -0.0401      0.0240      0.0792
        29         0.0000      0.0000      0.0000      0.0000      0.0000
        30         0.0000     -0.0062     -0.0043      0.0001      0.0002
 Ground to excited state transition magnetic dipole moments (Au):
       state          X           Y           Z
         1         0.0004     -0.8816     -0.6391
         2        -0.0001     -0.0855     -0.0539
         3        -0.0001     -0.7595     -0.7536
         4         0.0097    -22.3473    -16.1834
         5         0.0129     -1.6782     -1.2151
         6        -0.0004      0.0011      0.0005
         7        -0.0003      0.1294      0.0370
         8        -0.0027      6.2256      4.5125
         9         0.0006     -0.0024     -0.0043
        10         0.0044      0.3128     -0.2475
        11         0.3840     -0.0012      0.0039
        12        -0.0023     -0.0003      0.0003
        13        -0.0001      0.0001      0.0001
        14         0.0000     -0.0096     -0.0062
        15         0.0052    -11.8553     -8.5872
        16         0.0014      0.2661      0.3003
        17        -0.0043      0.5501      0.3977
        18        -0.0001      0.0001      0.0000
        19        -0.0001      0.0005      0.0012
        20         0.0015     -0.0001      0.0003
        21        -0.0042      0.5431      0.3930
        22        -0.0001      0.0000     -0.0006
        23        -0.0001      0.0015      0.0011
        24         0.0124     -1.6097     -1.1653
        25         0.0000      0.0153     -0.0174
        26         0.0086      3.4226     -4.6616
        27         0.0035     -8.2103     -5.9994
        28        -0.0012      2.7606      1.9302
        29         0.0000     -0.0013      0.0013
        30         0.0008      0.2996     -0.4290
 Ground to excited state transition velocity quadrupole moments (Au):
       state          XX          YY          ZZ          XY          XZ          YZ
         1        -0.2066      0.0008      0.0025     -0.6391      0.8813     -0.0014
         2         2.1905      0.0001      0.0002     -0.0552      0.0886     -0.0001
         3       -55.1790      0.0009      0.0019     -0.7212      0.6819     -0.0015
         4         2.0339      0.0190      0.0629    -16.1841     22.3510     -0.0359
         5         0.0005      0.0000      0.0001     -0.0070      0.0113      0.0000
         6        -0.2922      0.0895      0.1704     -0.0003     -0.0025     -0.1235
         7       -15.3896     -0.0002     -0.0006      0.0461     -0.1512      0.0003
         8         0.2801     -0.0053     -0.0175      4.5130     -6.2265      0.0100
         9        -0.0010      0.0000      0.0000      0.0071     -0.0082      0.0000
        10        -0.0016     -0.0001      0.0012      0.1211     -0.0420      0.0006
        11        -0.2067     -0.0686      0.0719     -0.0012     -0.0010      0.0214
        12         0.4994      0.1771      0.3220      0.0023      0.0017     -0.2222
        13         0.4976     -0.1718     -0.3272      0.0013      0.0036      0.2371
        14        -0.0102      0.0056     -0.0109      0.7155     -0.9865      0.0002
        15         0.7427      0.0101      0.0334     -8.5867     11.8584     -0.0190
        16        29.2672     -0.0006     -0.0006      0.2835     -0.2254      0.0007
        17         0.0008      0.0000     -0.0002     -0.0012      0.0008      0.0002
        18        -0.0714     -0.0240     -0.0446     -0.0004     -0.0002      0.0312
        19        -0.0102     -0.0109      0.0210     -1.3986      1.9314     -0.0001
        20         0.4402      0.0155      0.2170      0.0035      0.0028     -0.3095
        21        -0.0007     -0.0001     -0.0001     -0.0008      0.0003      0.0000
        22         1.3382     -0.4582     -0.8741      0.0001      0.0134      0.6347
        23         0.0180     -0.0006     -0.0011      0.0011     -0.0015      0.0009
        24         0.0018      0.0000      0.0001     -0.0132      0.0192     -0.0001
        25         0.0044      0.0000      0.0000     -0.0208     -0.0105      0.0000
        26         0.0852      0.0055     -0.0096     -4.6633     -3.4201     -0.0046
        27        -6.7657      0.0070      0.0232     -5.9978      8.2041     -0.0133
        28       -20.3577     -0.0022     -0.0075      1.9430     -2.7906      0.0042
        29         0.0035      0.0002      0.0003      0.0013      0.0013     -0.0001
        30         0.0056      0.0005     -0.0009     -0.4268     -0.3026     -0.0004
 <0|del|b> * <b|rxdel|0> + <0|del|b> * <b|delr+rdel|0>
 Rotatory Strengths (R) in cgs (10**-40 erg-esu-cm/Gauss)
       state          XX          YY          ZZ    R(velocity)
         1         0.0022      0.0066      0.0001      0.0030
         2         0.0000     -0.0060     -0.0052     -0.0037
         3        -0.0010      0.7867      0.7599      0.5152
         4        -0.9220     -0.3695     -0.5275     -0.6063
         5        -0.0661     -0.4998      0.4339     -0.0440
         6         0.0000      0.0745     -0.0741      0.0002
         7         0.0002      0.0462      0.1368      0.0610
         8        -0.0218      0.1589     -0.2274     -0.0301
         9        -0.0001     -0.0020      0.0011     -0.0003
        10         1.1519      1.1046      0.5899      0.9488
        11         0.0000     -1.4926     -1.3352     -0.9426
        12         0.0000     -0.0588      0.0576     -0.0004
        13         0.0000     -0.0050      0.0050      0.0000
        14         0.0300     -0.2310      0.2009      0.0000
        15        -0.5935     -0.3301     -0.5480     -0.4905
        16         0.0016      0.8517      0.7247      0.5260
        17        -0.0109      0.0144     -0.0253     -0.0072
        18         0.0000     -0.0013      0.0013      0.0000
        19        -0.0283     -0.0207      0.0490      0.0000
        20         0.0000      0.0018     -0.0018      0.0000
        21        -0.0082      0.0059     -0.0141     -0.0055
        22         0.0000     -0.0194      0.0194      0.0000
        23         0.0000      0.0002     -0.0002      0.0000
        24        -0.0315     -0.5650      0.5342     -0.0208
        25        -0.0026     -0.0010     -0.0025     -0.0020
        26         0.3892     -0.1454     -0.2817     -0.0126
        27         0.0358      0.5052     -0.5020      0.0130
        28         0.0029      0.1293     -0.0653      0.0223
        29         0.0000      0.0000      0.0000      0.0000
        30        -0.0492      0.0164      0.0315     -0.0004
 1/2[<0|r|b>*<b|rxdel|0> + (<0|rxdel|b>*<b|r|0>)*]
 Rotatory Strengths (R) in cgs (10**-40 erg-esu-cm/Gauss)
       state          XX          YY          ZZ     R(length)
         1        -0.0037     50.8651    -50.9179     -0.0188
         2        -0.0062      0.4235     -0.4267     -0.0031
         3         0.2194     46.0237    -44.6356      0.5358
         4         0.8101  29708.4539 -29710.0428     -0.2596
         5         0.0003      0.9094     -1.0228     -0.0377
         6         0.0005      0.0000      0.0000      0.0002
         7         0.1708      0.3941     -0.3802      0.0616
         8        -0.0276   2058.4111  -2058.4888     -0.0351
         9         0.0000      0.0005     -0.0016     -0.0004
        10        -0.0002      1.4169      1.5467      0.9878
        11        -2.9481      0.0001      0.0000     -0.9827
        12        -0.0013      0.0000      0.0000     -0.0004
        13         0.0000      0.0000      0.0000      0.0000
        14         0.0000      0.0041     -0.0041      0.0000
        15         0.1292   6874.9167  -6876.5561     -0.5034
        16         1.3714      5.2478     -4.9883      0.5436
        17         0.0000     -0.0544      0.0254     -0.0097
        18         0.0000      0.0000      0.0000      0.0000
        19         0.0000      0.0000     -0.0001      0.0000
        20         0.0000      0.0000      0.0000      0.0000
        21         0.0000     -0.0315      0.0203     -0.0037
        22         0.0000      0.0000      0.0000      0.0000
        23         0.0000      0.0001     -0.0001      0.0000
        24         0.0006      1.0904     -1.1734     -0.0274
        25         0.0000     -0.0111      0.0064     -0.0016
        26         0.0123   -492.8349    496.9013      1.3596
        27        -0.6117   2507.0170  -2510.9866     -1.5271
        28         0.6320    272.1069   -273.0132     -0.0914
        29         0.0000      0.0000      0.0000      0.0000
        30         0.0002     -8.0905      8.1665      0.0254
  1/2[<0|del|b>*<b|r|0> + (<0|r|b>*<b|del|0>)*] (Au)
       state          X           Y           Z        Dip. S.   Osc.(frdel)
         1         0.0000     -0.0008     -0.0014      0.0022      0.0015
         2        -0.0022      0.0000      0.0000      0.0022      0.0015
         3        -1.2759     -0.0009     -0.0009      1.2777      0.8518
         4        -0.0017     -0.4390     -0.8373      1.2780      0.8520
         5         0.0000      0.0000      0.0000      0.0000      0.0000
         6         0.0000      0.0000      0.0000      0.0000      0.0000
         7        -0.0885      0.0000      0.0000      0.0886      0.0590
         8         0.0000     -0.0305     -0.0580      0.0884      0.0590
         9         0.0000      0.0000      0.0000      0.0000      0.0000
        10         0.0000      0.0000      0.0000      0.0000      0.0000
        11         0.0000      0.0000      0.0000      0.0000      0.0000
        12         0.0000      0.0000      0.0000      0.0000      0.0000
        13         0.0000      0.0000      0.0000      0.0000      0.0000
        14         0.0000      0.0000      0.0000      0.0000      0.0000
        15        -0.0002     -0.1016     -0.1938      0.2956      0.1970
        16        -0.2951     -0.0001     -0.0001      0.2953      0.1969
        17         0.0000      0.0000      0.0000      0.0000      0.0000
        18         0.0000      0.0000      0.0000      0.0000      0.0000
        19         0.0000      0.0000      0.0000      0.0000      0.0000
        20         0.0000      0.0000      0.0000      0.0000      0.0000
        21         0.0000      0.0000      0.0000      0.0000      0.0000
        22         0.0000      0.0000      0.0000      0.0000      0.0000
        23         0.0000      0.0000      0.0000      0.0000      0.0000
        24         0.0000      0.0000      0.0000      0.0000      0.0000
        25         0.0000      0.0000      0.0000      0.0000      0.0000
        26         0.0000     -0.0137     -0.0074      0.0211      0.0141
        27        -0.0119     -0.0374     -0.0701      0.1194      0.0796
        28        -0.1077     -0.0039     -0.0080      0.1196      0.0797
        29         0.0000      0.0000      0.0000      0.0000      0.0000
        30         0.0000     -0.0002     -0.0001      0.0004      0.0002

 Excitation energies and oscillator strengths:
 
 Excited state symmetry could not be determined.
 Excited State   1:      Singlet-?Sym    2.4145 eV  513.50 nm  f=0.0012  <S**2>=0.000
      85 -> 88         0.48700
      86 -> 87         0.50407
 This state for optimization and/or second-order correction.
 Total Energy, E(TD-HF/TD-KS) =  -1053.93382591    
 Copying the excited state density for this state as the 1-particle RhoCI density.
 
 Excited state symmetry could not be determined.
 Excited State   2:      Singlet-?Sym    2.4145 eV  513.50 nm  f=0.0012  <S**2>=0.000
      85 -> 87        -0.48707
      86 -> 88         0.50399
 
 Excited state symmetry could not be determined.
 Excited State   3:      Singlet-?Sym    3.5228 eV  351.95 nm  f=0.8877  <S**2>=0.000
      81 -> 88         0.15157
      84 -> 87        -0.14486
      85 -> 87         0.49673
      86 -> 88         0.46742
      85 <- 87        -0.10747
      86 <- 88        -0.10932
 
 Excited state symmetry could not be determined.
 Excited State   4:      Singlet-?Sym    3.5229 eV  351.94 nm  f=0.8879  <S**2>=0.000
      81 -> 87        -0.15164
      84 -> 88         0.14468
      85 -> 88         0.49680
      86 -> 87        -0.46737
      85 <- 88        -0.10747
      86 <- 87         0.10934
 
 Excited state symmetry could not be determined.
 Excited State   5:      Singlet-?Sym    3.7375 eV  331.73 nm  f=0.0000  <S**2>=0.000
      82 -> 87         0.37199
      82 -> 88         0.32769
      83 -> 87         0.32832
      83 -> 88        -0.37160
 
 Excited state symmetry could not be determined.
 Excited State   6:      Singlet-?Sym    3.7793 eV  328.06 nm  f=0.0000  <S**2>=0.000
      82 -> 87        -0.33683
      82 -> 88        -0.36545
      83 -> 87         0.36572
      83 -> 88        -0.33634
 
 Excited state symmetry could not be determined.
 Excited State   7:      Singlet-?Sym    3.8191 eV  324.64 nm  f=0.0595  <S**2>=0.000
      84 -> 87         0.68357
      86 -> 88         0.14079
 
 Excited state symmetry could not be determined.
 Excited State   8:      Singlet-?Sym    3.8193 eV  324.62 nm  f=0.0594  <S**2>=0.000
      84 -> 88         0.68360
      86 -> 87         0.14067
 
 Excited state symmetry could not be determined.
 Excited State   9:      Singlet-?Sym    3.9067 eV  317.36 nm  f=0.0000  <S**2>=0.000
      82 -> 87         0.36285
      82 -> 88        -0.33454
      83 -> 87         0.33420
      83 -> 88         0.36350
 
 Excited state symmetry could not be determined.
 Excited State  10:      Singlet-?Sym    3.9431 eV  314.43 nm  f=0.0000  <S**2>=0.000
      80 -> 87         0.70226
 
 Excited state symmetry could not be determined.
 Excited State  11:      Singlet-?Sym    3.9433 eV  314.41 nm  f=0.0000  <S**2>=0.000
      80 -> 88         0.70226
 
 Excited state symmetry could not be determined.
 Excited State  12:      Singlet-?Sym    3.9890 eV  310.82 nm  f=0.0000  <S**2>=0.000
      82 -> 87        -0.32898
      82 -> 88         0.37329
      83 -> 87         0.37279
      83 -> 88         0.32923
 
 Excited state symmetry could not be determined.
 Excited State  13:      Singlet-?Sym    4.1414 eV  299.38 nm  f=0.0000  <S**2>=0.000
      78 -> 87         0.12278
      79 -> 88         0.12275
      86 -> 89         0.68043
 
 Excited state symmetry could not be determined.
 Excited State  14:      Singlet-?Sym    4.2556 eV  291.34 nm  f=0.0000  <S**2>=0.000
      78 -> 88         0.13744
      79 -> 87        -0.13753
      85 -> 89         0.66894
 
 Excited state symmetry could not be determined.
 Excited State  15:      Singlet-?Sym    4.2565 eV  291.28 nm  f=0.2040  <S**2>=0.000
      81 -> 87         0.68304
      85 -> 88         0.10477
 
 Excited state symmetry could not be determined.
 Excited State  16:      Singlet-?Sym    4.2567 eV  291.27 nm  f=0.2039  <S**2>=0.000
      81 -> 88         0.68307
      85 -> 87        -0.10470
 
 Excited state symmetry could not be determined.
 Excited State  17:      Singlet-?Sym    4.6627 eV  265.91 nm  f=0.0000  <S**2>=0.000
      78 -> 88         0.49553
      79 -> 87         0.49568
 
 Excited state symmetry could not be determined.
 Excited State  18:      Singlet-?Sym    4.8345 eV  256.46 nm  f=0.0000  <S**2>=0.000
      78 -> 87         0.49524
      79 -> 88        -0.49509
 
 Excited state symmetry could not be determined.
 Excited State  19:      Singlet-?Sym    5.1327 eV  241.56 nm  f=0.0000  <S**2>=0.000
      78 -> 88         0.46147
      79 -> 87        -0.46119
      85 -> 89        -0.16564
      86 -> 92        -0.18737
 
 Excited state symmetry could not be determined.
 Excited State  20:      Singlet-?Sym    5.2069 eV  238.11 nm  f=0.0000  <S**2>=0.000
      86 -> 90         0.70414
 
 Excited state symmetry could not be determined.
 Excited State  21:      Singlet-?Sym    5.2794 eV  234.84 nm  f=0.0000  <S**2>=0.000
      85 -> 90         0.70412
 
 Excited state symmetry could not be determined.
 Excited State  22:      Singlet-?Sym    5.2883 eV  234.45 nm  f=0.0000  <S**2>=0.000
      78 -> 87        -0.44982
      79 -> 88        -0.45000
      81 -> 89         0.13954
      85 -> 92        -0.21743
      86 -> 89         0.13557
 
 Excited state symmetry could not be determined.
 Excited State  23:      Singlet-?Sym    5.3088 eV  233.54 nm  f=0.0000  <S**2>=0.000
      76 -> 88        -0.40690
      77 -> 87         0.40920
      80 -> 89        -0.40412
 
 Excited state symmetry could not be determined.
 Excited State  24:      Singlet-?Sym    5.4466 eV  227.64 nm  f=0.0000  <S**2>=0.000
      84 -> 89         0.70199
 
 Excited state symmetry could not be determined.
 Excited State  25:      Singlet-?Sym    5.4583 eV  227.15 nm  f=0.0000  <S**2>=0.000
      76 -> 87        -0.49542
      77 -> 88         0.50150
 
 Excited state symmetry could not be determined.
 Excited State  26:      Singlet-?Sym    5.4818 eV  226.18 nm  f=0.0086  <S**2>=0.000
      76 -> 87         0.13215
      77 -> 88         0.12868
      86 -> 91         0.68064
 
 Excited state symmetry could not be determined.
 Excited State  27:      Singlet-?Sym    5.4857 eV  226.01 nm  f=0.0801  <S**2>=0.000
      82 -> 89        -0.28199
      83 -> 89         0.64086
 
 Excited state symmetry could not be determined.
 Excited State  28:      Singlet-?Sym    5.4858 eV  226.01 nm  f=0.0802  <S**2>=0.000
      82 -> 89         0.64087
      83 -> 89         0.28199
 
[...]
    13  H    0.005287   0.000000   0.000000   0.000000   0.000074  -0.038407
    14  C    0.406791   0.000000   0.000000   0.000002  -0.015079   0.445901
    15  H    0.000000   0.357441  -0.001949  -0.038284   0.000074   0.000000
    16  C   -0.000023  -0.062038  -0.000108   0.435536  -0.015653   0.000000
    17  N   -0.000634  -0.000024   0.000000  -0.010348   0.174147   0.000000
    18  N   -0.018839   0.000000   0.000000   0.000032   0.174145  -0.000024
    19  H    0.005289   0.000000   0.000000   0.000000   0.000074   0.357440
    20  C   -0.063376   0.000000   0.000000   0.000000  -0.015654  -0.062037
    21  C    0.000032   0.004641   0.000002  -0.003070  -0.015082   0.000000
    22  C    0.000033   0.000000   0.000000  -0.000004  -0.015083   0.000000
    23  C   -0.010348   0.000000   0.000000   0.000000  -0.015081   0.004641
    24  C    0.000197   0.000000   0.000000  -0.000001  -0.015085   0.000000
    25  C    0.000000  -0.000224   0.000000   0.004642   0.003220   0.000000
    26  C    0.000000   0.000004   0.000000  -0.000189   0.003222   0.000000
    27  C   -0.000023   0.000000   0.000000   0.000001  -0.015654   0.000000
    28  C   -0.000024   0.000000   0.000000   0.000000   0.003219  -0.000224
    29  C   -0.000006   0.000000   0.000000   0.000000   0.003222   0.000004
    30  H    0.000000   0.000002   0.000000   0.000053   0.000074   0.000000
    31  H    0.000000   0.000000   0.000000   0.000002   0.000074   0.000000
    32  H    0.000003   0.000000   0.000000   0.000000   0.000074   0.000002
    33  H    0.000000   0.000000   0.000000   0.000000   0.000074   0.000000
    34  H    0.000000  -0.006323  -0.000008  -0.037127   0.000214   0.000000
    35  H    0.000000   0.000000   0.000000   0.000000   0.000214   0.000000
    36  H    0.003955   0.000000   0.000000   0.000000   0.000214  -0.006324
    37  H    0.003954   0.000033   0.003097  -0.000003   0.000214   0.000033
             13         14         15         16         17         18
     1  C   -0.003386   0.001491  -0.000109  -0.000679  -0.000023  -0.000023
     2  C    0.000053  -0.000004   0.003840   0.001489   0.000197   0.000033
     3  C   -0.038279  -0.058560   0.000002   0.000001   0.000033   0.000197
     4  C    0.000002   0.000000  -0.038420   0.010962  -0.000006   0.000000
     5  N    0.000003   0.000197   0.005289  -0.063374  -0.018839  -0.000634
     6  C    0.357442  -0.034156   0.000000   0.000000   0.000000  -0.000006
     7  N    0.005287   0.406791   0.000000  -0.000023  -0.000634  -0.018839
     8  C    0.000000   0.000000   0.357441  -0.062038  -0.000024   0.000000
     9  H    0.000000   0.000000  -0.001949  -0.000108   0.000000   0.000000
    10  C    0.000000   0.000002  -0.038284   0.435536  -0.010348   0.000032
    11  Zn   0.000074  -0.015079   0.000074  -0.015653   0.174147   0.174145
    12  C   -0.038407   0.445901   0.000000   0.000000   0.000000  -0.000024
    13  H    0.577457   0.003838   0.000000   0.000000   0.000000   0.000000
    14  C    0.003838   4.558246   0.000000   0.000000   0.000032  -0.010350
    15  H    0.000000   0.000000   0.577491  -0.003387   0.000003   0.000000
    16  C    0.000000   0.000000  -0.003387   5.303563  -0.063370  -0.000023
    17  N    0.000000   0.000032   0.000003  -0.063370   7.041534  -0.018806
    18  N    0.000000  -0.010350   0.000000  -0.000023  -0.018806   7.041533
    19  H   -0.001949  -0.038284   0.000000   0.000000   0.000000   0.000003
    20  C   -0.000108   0.435531   0.000000   0.000000  -0.000023  -0.063368
    21  C    0.000000   0.000000   0.000053   0.435558   0.406765   0.000197
    22  C    0.000000  -0.000001   0.000000   0.001489   0.406799  -0.010332
    23  C    0.000002  -0.003070   0.000000   0.000000   0.000197   0.406763
    24  C    0.000000  -0.000004   0.000000   0.000001  -0.010332   0.406798
    25  C    0.000000   0.000000   0.000002  -0.062027  -0.082567  -0.000006
    26  C    0.000000   0.000000   0.000000   0.010960  -0.082558  -0.000024
    27  C    0.000000   0.000001   0.000000  -0.000679  -0.063397  -0.063397
    28  C    0.000000   0.004642   0.000000   0.000000  -0.000006  -0.082566
    29  C    0.000000  -0.000189   0.000000   0.000000  -0.000024  -0.082559
    30  H    0.000000   0.000000   0.000000  -0.003386   0.005289   0.000000
    31  H    0.000000   0.000000   0.000000  -0.000109   0.005287   0.000003
    32  H    0.000000   0.000053   0.000000   0.000000   0.000000   0.005289
    33  H    0.000000   0.000002   0.000000   0.000000   0.000003   0.005287
    34  H    0.000000   0.000000   0.003095   0.355609   0.003955   0.000000
    35  H    0.000000   0.000000   0.000000   0.000005   0.003954   0.003954
    36  H   -0.000008  -0.037128   0.000000   0.000000   0.000000   0.003955
    37  H    0.003097  -0.000003  -0.000008   0.000005   0.000000   0.000000
             19         20         21         22         23         24
     1  C   -0.000109  -0.000679   0.000001   0.000000   0.000001   0.000000
     2  C    0.000002   0.000001  -0.000004   0.000002  -0.000001   0.000000
     3  C    0.003840   0.001489  -0.000001   0.000000  -0.000004   0.000002
     4  C    0.000000   0.000000  -0.000189   0.000000   0.000000   0.000000
     5  N    0.000000  -0.000023  -0.010350   0.000197   0.000032   0.000033
     6  C   -0.038420   0.010963   0.000000   0.000000  -0.000189   0.000000
     7  N    0.005289  -0.063376   0.000032   0.000033  -0.010348   0.000197
     8  C    0.000000   0.000000   0.004641   0.000000   0.000000   0.000000
     9  H    0.000000   0.000000   0.000002   0.000000   0.000000   0.000000
    10  C    0.000000   0.000000  -0.003070  -0.000004   0.000000  -0.000001
    11  Zn   0.000074  -0.015654  -0.015082  -0.015083  -0.015081  -0.015085
    12  C    0.357440  -0.062037   0.000000   0.000000   0.004641   0.000000
    13  H   -0.001949  -0.000108   0.000000   0.000000   0.000002   0.000000
    14  C   -0.038284   0.435531   0.000000  -0.000001  -0.003070  -0.000004
    15  H    0.000000   0.000000   0.000053   0.000000   0.000000   0.000000
    16  C    0.000000   0.000000   0.435558   0.001489   0.000000   0.000001
    17  N    0.000000  -0.000023   0.406765   0.406799   0.000197  -0.010332
    18  N    0.000003  -0.063368   0.000197  -0.010332   0.406763   0.406798
    19  H    0.577491  -0.003387   0.000000   0.000000   0.000053   0.000000
    20  C   -0.003387   5.303564   0.000000   0.000001   0.435562   0.001489
    21  C    0.000000   0.000000   4.558239  -0.058556   0.000002  -0.000004
    22  C    0.000000   0.000001  -0.058556   4.558244  -0.000004  -0.003079
    23  C    0.000053   0.435562   0.000002  -0.000004   4.558229  -0.058559
    24  C    0.000000   0.001489  -0.000004  -0.003079  -0.058559   4.558255
    25  C    0.000000   0.000000   0.445901  -0.034164   0.000000  -0.000189
    26  C    0.000000   0.000000  -0.034159   0.445873   0.000000   0.004642
    27  C    0.000000  -0.000679   0.001492   0.435471   0.001492   0.435476
    28  C    0.000002  -0.062028   0.000000  -0.000189   0.445897  -0.034164
    29  C    0.000000   0.010960   0.000000   0.004643  -0.034158   0.445868
    30  H    0.000000   0.000000  -0.038281   0.003839   0.000000   0.000002
    31  H    0.000000   0.000000   0.003838  -0.038276   0.000000   0.000053
    32  H    0.000000  -0.003386   0.000000   0.000002  -0.038281   0.003839
    33  H    0.000000  -0.000109   0.000000   0.000053   0.003838  -0.038276
    34  H    0.000000   0.000000  -0.037126  -0.000003   0.000000   0.000000
    35  H    0.000000   0.000005  -0.000003  -0.037130  -0.000003  -0.037129
    36  H    0.003095   0.355609   0.000000   0.000000  -0.037125  -0.000003
    37  H   -0.000008   0.000005   0.000000   0.000000   0.000000   0.000000
             25         26         27         28         29         30
     1  C    0.000000   0.000000   0.000000   0.000000   0.000000   0.000000
     2  C    0.000000   0.000000   0.000000   0.000000   0.000000   0.000000
     3  C    0.000000   0.000000   0.000000   0.000000   0.000000   0.000000
     4  C    0.000004   0.000000   0.000000   0.000000   0.000000   0.000000
     5  N   -0.000024  -0.000006  -0.000023   0.000000   0.000000   0.000003
     6  C    0.000000   0.000000   0.000000   0.000004   0.000000   0.000000
     7  N    0.000000   0.000000  -0.000023  -0.000024  -0.000006   0.000000
     8  C   -0.000224   0.000004   0.000000   0.000000   0.000000   0.000002
     9  H    0.000000   0.000000   0.000000   0.000000   0.000000   0.000000
    10  C    0.004642  -0.000189   0.000001   0.000000   0.000000   0.000053
    11  Zn   0.003220   0.003222  -0.015654   0.003219   0.003222   0.000074
    12  C    0.000000   0.000000   0.000000  -0.000224   0.000004   0.000000
    13  H    0.000000   0.000000   0.000000   0.000000   0.000000   0.000000
    14  C    0.000000   0.000000   0.000001   0.004642  -0.000189   0.000000
    15  H    0.000002   0.000000   0.000000   0.000000   0.000000   0.000000
    16  C   -0.062027   0.010960  -0.000679   0.000000   0.000000  -0.003386
    17  N   -0.082567  -0.082558  -0.063397  -0.000006  -0.000024   0.005289
    18  N   -0.000006  -0.000024  -0.063397  -0.082566  -0.082559   0.000000
    19  H    0.000000   0.000000   0.000000   0.000002   0.000000   0.000000
    20  C    0.000000   0.000000  -0.000679  -0.062028   0.010960   0.000000
    21  C    0.445901  -0.034159   0.001492   0.000000   0.000000  -0.038281
    22  C   -0.034164   0.445873   0.435471  -0.000189   0.004643   0.003839
    23  C    0.000000   0.000000   0.001492   0.445897  -0.034158   0.000000
    24  C   -0.000189   0.004642   0.435476  -0.034164   0.445868   0.000002
    25  C    5.072790   0.515188   0.010960   0.000000   0.000004   0.357440
    26  C    0.515188   5.072927  -0.062048   0.000004  -0.000224  -0.038419
    27  C    0.010960  -0.062048   5.303737   0.010960  -0.062048  -0.000109
    28  C    0.000000   0.000004   0.010960   5.072791   0.515192   0.000000
    29  C    0.000004  -0.000224  -0.062048   0.515192   5.072926   0.000000
    30  H    0.357440  -0.038419  -0.000109   0.000000   0.000000   0.577486
    31  H   -0.038411   0.357442  -0.003384   0.000000   0.000002  -0.001950
    32  H    0.000000   0.000000  -0.000109   0.357440  -0.038419   0.000000
    33  H    0.000000   0.000002  -0.003384  -0.038411   0.357441   0.000000
    34  H   -0.006327   0.000032   0.000005   0.000000   0.000000   0.003095
    35  H    0.000033  -0.006325   0.355611   0.000033  -0.006325  -0.000008
    36  H    0.000000   0.000000   0.000005  -0.006327   0.000032   0.000000
    37  H    0.000000   0.000000   0.000000   0.000000   0.000000   0.000000
             31         32         33         34         35         36
     1  C    0.000000   0.000000   0.000000   0.000005   0.000000   0.000005
     2  C    0.000000   0.000000   0.000000  -0.000003   0.000000   0.000000
     3  C    0.000000   0.000000   0.000000   0.000000   0.000000  -0.000003
     4  C    0.000000   0.000000   0.000000   0.000032   0.000000   0.000000
     5  N    0.000000   0.000000   0.000000   0.003955   0.000000   0.000000
     6  C    0.000000   0.000000   0.000000   0.000000   0.000000   0.000032
     7  N    0.000000   0.000003   0.000000   0.000000   0.000000   0.003955
     8  C    0.000000   0.000000   0.000000  -0.006323   0.000000   0.000000
     9  H    0.000000   0.000000   0.000000  -0.000008   0.000000   0.000000
    10  C    0.000002   0.000000   0.000000  -0.037127   0.000000   0.000000
    11  Zn   0.000074   0.000074   0.000074   0.000214   0.000214   0.000214
    12  C    0.000000   0.000002   0.000000   0.000000   0.000000  -0.006324
    13  H    0.000000   0.000000   0.000000   0.000000   0.000000  -0.000008
    14  C    0.000000   0.000053   0.000002   0.000000   0.000000  -0.037128
    15  H    0.000000   0.000000   0.000000   0.003095   0.000000   0.000000
    16  C   -0.000109   0.000000   0.000000   0.355609   0.000005   0.000000
    17  N    0.005287   0.000000   0.000003   0.003955   0.003954   0.000000
    18  N    0.000003   0.005289   0.005287   0.000000   0.003954   0.003955
    19  H    0.000000   0.000000   0.000000   0.000000   0.000000   0.003095
    20  C    0.000000  -0.003386  -0.000109   0.000000   0.000005   0.355609
    21  C    0.003838   0.000000   0.000000  -0.037126  -0.000003   0.000000
    22  C   -0.038276   0.000002   0.000053  -0.000003  -0.037130   0.000000
    23  C    0.000000  -0.038281   0.003838   0.000000  -0.000003  -0.037125
    24  C    0.000053   0.003839  -0.038276   0.000000  -0.037129  -0.000003
    25  C   -0.038411   0.000000   0.000000  -0.006327   0.000033   0.000000
    26  C    0.357442   0.000000   0.000002   0.000032  -0.006325   0.000000
    27  C   -0.003384  -0.000109  -0.003384   0.000005   0.355611   0.000005
    28  C    0.000000   0.357440  -0.038411   0.000000   0.000033  -0.006327
    29  C    0.000002  -0.038419   0.357441   0.000000  -0.006325   0.000032
    30  H   -0.001950   0.000000   0.000000   0.003095  -0.000008   0.000000
    31  H    0.577462   0.000000   0.000000  -0.000008   0.003095   0.000000
    32  H    0.000000   0.577486  -0.001949   0.000000  -0.000008   0.003095
    33  H    0.000000  -0.001949   0.577462   0.000000   0.003095  -0.000008
    34  H   -0.000008   0.000000   0.000000   0.582596   0.000000   0.000000
    35  H    0.003095  -0.000008   0.003095   0.000000   0.582600   0.000000
    36  H    0.000000   0.003095  -0.000008   0.000000   0.000000   0.582596
    37  H    0.000000   0.000000   0.000000   0.000000   0.000000   0.000000
             37
     1  C    0.355610
     2  C   -0.037128
     3  C   -0.037128
     4  C   -0.006327
     5  N    0.003954
     6  C   -0.006327
     7  N    0.003954
     8  C    0.000033
     9  H    0.003097
    10  C   -0.000003
    11  Zn   0.000214
    12  C    0.000033
    13  H    0.003097
    14  C   -0.000003
    15  H   -0.000008
    16  C    0.000005
    17  N    0.000000
    18  N    0.000000
    19  H   -0.000008
    20  C    0.000005
    21  C    0.000000
    22  C    0.000000
    23  C    0.000000
    24  C    0.000000
    25  C    0.000000
    26  C    0.000000
    27  C    0.000000
    28  C    0.000000
    29  C    0.000000
    30  H    0.000000
    31  H    0.000000
    32  H    0.000000
    33  H    0.000000
    34  H    0.000000
    35  H    0.000000
    36  H    0.000000
    37  H    0.582599
 Mulliken atomic charges:
              1
     1  C   -0.280276
     2  C    0.340156
     3  C    0.340162
     4  C   -0.186321
     5  N   -0.697202
     6  C   -0.186322
     7  N   -0.697206
     8  C   -0.186254
     9  H    0.134882
    10  C    0.340105
    11  Zn   1.063003
    12  C   -0.186251
    13  H    0.134883
    14  C    0.340097
    15  H    0.134867
    16  C   -0.280324
    17  N   -0.697240
    18  N   -0.697235
    19  H    0.134868
    20  C   -0.280325
    21  C    0.340103
    22  C    0.340175
    23  C    0.340112
    24  C    0.340170
    25  C   -0.186244
    26  C   -0.186344
    27  C   -0.280280
    28  C   -0.186246
    29  C   -0.186342
    30  H    0.134869
    31  H    0.134879
    32  H    0.134869
    33  H    0.134879
    34  H    0.134333
    35  H    0.134334
    36  H    0.134333
    37  H    0.134333
 Sum of Mulliken atomic charges =   0.00000
 Mulliken charges with hydrogens summed into heavy atoms:
              1
     1  C   -0.145943
     2  C    0.340156
     3  C    0.340162
     4  C   -0.051438
     5  N   -0.697202
     6  C   -0.051440
     7  N   -0.697206
     8  C   -0.051386
    10  C    0.340105
    11  Zn   1.063003
    12  C   -0.051383
    14  C    0.340097
    16  C   -0.145991
    17  N   -0.697240
    18  N   -0.697235
    20  C   -0.145992
    21  C    0.340103
    22  C    0.340175
    23  C    0.340112
    24  C    0.340170
    25  C   -0.051374
    26  C   -0.051465
    27  C   -0.145946
    28  C   -0.051377
    29  C   -0.051462
 Sum of Mulliken charges with hydrogens summed into heavy atoms =   0.00000
 Electronic spatial extent (au):  <R**2>=         833627.1920
 Charge=              0.0000 electrons
 Dipole moment (field-independent basis, Debye):
    X=             -0.0002    Y=              0.0000    Z=              0.0000  Tot=              0.0002
 Quadrupole moment (field-independent basis, Debye-Ang):
   XX=           -125.2279   YY=           -142.4675   ZZ=           -134.2588
   XY=              0.1321   XZ=              0.0959   YZ=            -12.4932
 Traceless Quadrupole moment (field-independent basis, Debye-Ang):
   XX=              8.7568   YY=             -8.4828   ZZ=             -0.2740
   XY=              0.1321   XZ=              0.0959   YZ=            -12.4932
 Octapole moment (field-independent basis, Debye-Ang**2):
  XXX=         -13775.6478  YYY=              9.1955  ZZZ=            -20.7890  XYY=          -5224.3618
  XXY=             12.4325  XXZ=              0.5886  XZZ=          -4923.3283  YZZ=              1.5987
  YYZ=             -6.8161  XYZ=           -458.1328
 Hexadecapole moment (field-independent basis, Debye-Ang**3):
 XXXX=       -1014928.8084 YYYY=          -1947.9576 ZZZZ=          -3343.6022 XXXY=            824.1286
 XXXZ=           -328.6913 YYYX=            324.6314 YYYZ=           1145.7883 ZZZX=           -770.6528
 ZZZY=            980.3895 XXYY=        -192777.4963 XXZZ=        -181931.3911 YYZZ=           -732.0934
 XXYZ=         -16504.8505 YYXZ=           -254.6284 ZZXY=             53.9660
 N-N= 2.110734850401D+03 E-N=-6.753910601332D+03  KE= 1.097420400069D+03
 Leave Link  601 at Tue Feb 11 12:37:49 2014, MaxMem= 3221225472 cpu:       2.9
 (Enter /opt/chemistry/nbo//g09/l9999.exe)
 1\1\GINC-COMPUTE-0-1\SP\RB3LYP TD-FC\Gen\C20H12N4Zn1\JSHIGH\11-Feb-201
 4\0\\#p td(singlets,add=10) b3lyp/gen nosymm pseudo=cards geom=check g
 uess=read\\opt diznfbtppbz with opt starting geom from Kushal\\0,1\C,0
 ,33.23102898,-0.03468467,0.03281404\C,0,33.85519355,0.70374674,-0.9797
 7488\C,0,33.84972667,-0.76840396,1.05216128\C,0,33.17826689,1.45042184
 ,-2.01879638\N,0,35.21161205,0.83058071,-1.1409167\C,0,33.16722714,-1.
 52026375,2.08377098\N,0,35.2052379,-0.8849295,1.22805672\C,0,34.145446
 9,2.02060109,-2.79508112\H,0,32.10375756,1.52374545,-2.13237748\C,0,35
 .42211935,1.62742411,-2.23752683\Zn,0,36.67059284,-0.02151757,0.051612
 83\C,0,34.13020575,-2.08307594,2.87058025\H,0,32.09213535,-1.60178642,
 2.18564499\C,0,35.40984487,-1.68012772,2.32697855\H,0,34.01484029,2.65
 032395,-3.66641485\C,0,36.67803206,1.99707629,-2.73381765\N,0,38.13589
 596,0.84261283,-1.12424925\N,0,38.12953324,-0.87431202,1.24357774\H,0,
 33.99492143,-2.71379299,3.74048048\C,0,36.66304486,-2.04008936,2.83705
 848\C,0,37.93119819,1.63705037,-2.22374149\C,0,39.49143191,0.72533986,
 -0.94897577\C,0,37.91892308,-1.67038377,2.3407621\C,0,39.4859654,-0.74
 674468,1.08304751\C,0,39.21079762,2.04024794,-2.76723296\C,0,40.173826
 24,1.47776153,-1.98020709\C,0,40.11011721,-0.00835021,0.07041386\C,0,3
 9.19556049,-2.06382374,2.89819905\C,0,40.16279511,-1.49400339,2.121676
 18\H,0,39.34613709,2.67102518,-3.63709104\H,0,41.24888099,1.55957377,-
 2.08220927\H,0,39.32621938,-2.69359713,3.76949847\H,0,41.23726787,-1.5
 6764612,2.23537174\H,0,36.6804721,2.63464242,-3.61371654\H,0,41.196705
 12,-0.00424528,0.07631376\H,0,36.66072447,-2.67764973,3.71696141\H,0,3
 2.14445182,-0.03879873,0.02690604\\Version=AM64L-G09RevB.01\HF=-1054.0
 225562\RMSD=2.278e-09\PG=C01 [X(C20H12N4Zn1)]\\@


 THE MOST SERIOUS THREAT TO THE SURVIVAL OF MANKIND IS NOT NOW
 IGNORANCE IN THE TRADITIONAL SENSE,
 BUT A MORALLY NEUTRAL, AN INSENSITIVE OR INHIBITED HUMAN INTELLIGENCE.

                     -- MARGO JEFFERSON IN NEWSWEEK, SEPTEMBER 2, 1974
 Job cpu time:  0 days  8 hours 24 minutes 45.4 seconds.
 File lengths (MBytes):  RWF=    553 Int=      0 D2E=      0 Chk=    204 Scr=      1
 Normal termination of Gaussian 09 at Tue Feb 11 12:38:00 2014.
